 Entering Gaussian System, Link 0=g16
 Initial command:
 /mnt/data/applications/G16/g16/l1.exe "/scratch/Gau-19849.inp" -scrdir="/scratch/"
 Entering Link 1 = /mnt/data/applications/G16/g16/l1.exe PID=     19850.
  
 Copyright (c) 1988,1990,1992,1993,1995,1998,2003,2009,2016,
            Gaussian, Inc.  All Rights Reserved.
  
 This is part of the Gaussian(R) 16 program.  It is based on
 the Gaussian(R) 09 system (copyright 2009, Gaussian, Inc.),
 the Gaussian(R) 03 system (copyright 2003, Gaussian, Inc.),
 the Gaussian(R) 98 system (copyright 1998, Gaussian, Inc.),
 the Gaussian(R) 94 system (copyright 1995, Gaussian, Inc.),
 the Gaussian 92(TM) system (copyright 1992, Gaussian, Inc.),
 the Gaussian 90(TM) system (copyright 1990, Gaussian, Inc.),
 the Gaussian 88(TM) system (copyright 1988, Gaussian, Inc.),
 the Gaussian 86(TM) system (copyright 1986, Carnegie Mellon
 University), and the Gaussian 82(TM) system (copyright 1983,
 Carnegie Mellon University). Gaussian is a federally registered
 trademark of Gaussian, Inc.
  
 This software contains proprietary and confidential information,
 including trade secrets, belonging to Gaussian, Inc.
  
 This software is provided under written license and may be
 used, copied, transmitted, or stored only in accord with that
 written license.
  
 The following legend is applicable only to US Government
 contracts under FAR:
  
                    RESTRICTED RIGHTS LEGEND
  
 Use, reproduction and disclosure by the US Government is
 subject to restrictions as set forth in subparagraphs (a)
 and (c) of the Commercial Computer Software - Restricted
 Rights clause in FAR 52.227-19.
  
 Gaussian, Inc.
 340 Quinnipiac St., Bldg. 40, Wallingford CT 06492
  
  
 ---------------------------------------------------------------
 Warning -- This program may not be used in any manner that
 competes with the business of Gaussian, Inc. or will provide
 assistance to any competitor of Gaussian, Inc.  The licensee
 of this program is prohibited from giving any competitor of
 Gaussian, Inc. access to this program.  By using this program,
 the user acknowledges that Gaussian, Inc. is engaged in the
 business of creating and licensing software in the field of
 computational chemistry and represents and warrants to the
 licensee that it is not a competitor of Gaussian, Inc. and that
 it will not use this program in any manner prohibited above.
 ---------------------------------------------------------------
  

 Cite this work as:
 Gaussian 16, Revision A.03,
 M. J. Frisch, G. W. Trucks, H. B. Schlegel, G. E. Scuseria, 
 M. A. Robb, J. R. Cheeseman, G. Scalmani, V. Barone, 
 G. A. Petersson, H. Nakatsuji, X. Li, M. Caricato, A. V. Marenich, 
 J. Bloino, B. G. Janesko, R. Gomperts, B. Mennucci, H. P. Hratchian, 
 J. V. Ortiz, A. F. Izmaylov, J. L. Sonnenberg, D. Williams-Young, 
 F. Ding, F. Lipparini, F. Egidi, J. Goings, B. Peng, A. Petrone, 
 T. Henderson, D. Ranasinghe, V. G. Zakrzewski, J. Gao, N. Rega, 
 G. Zheng, W. Liang, M. Hada, M. Ehara, K. Toyota, R. Fukuda, 
 J. Hasegawa, M. Ishida, T. Nakajima, Y. Honda, O. Kitao, H. Nakai, 
 T. Vreven, K. Throssell, J. A. Montgomery, Jr., J. E. Peralta, 
 F. Ogliaro, M. J. Bearpark, J. J. Heyd, E. N. Brothers, K. N. Kudin, 
 V. N. Staroverov, T. A. Keith, R. Kobayashi, J. Normand, 
 K. Raghavachari, A. P. Rendell, J. C. Burant, S. S. Iyengar, 
 J. Tomasi, M. Cossi, J. M. Millam, M. Klene, C. Adamo, R. Cammi, 
 J. W. Ochterski, R. L. Martin, K. Morokuma, O. Farkas, 
 J. B. Foresman, and D. J. Fox, Gaussian, Inc., Wallingford CT, 2016.
 
 ******************************************
 Gaussian 16:  AM64L-G16RevA.03 25-Dec-2016
                10-Jul-2024 
 ******************************************
 %nproc=12
 Will use up to   12 processors via shared memory.
 %mem=20GB
 %chk=a.chk
 ----------------------------------------------------------------------
 #p opt freq b3lyp/gen pseudo=read EmpiricalDispersion=GD3BJ pop=(orbit
 als=20) optcyc=300 nosymm scrf=(pcm,solvent=acetonitrile)
 ----------------------------------------------------------------------
 1/6=300,18=20,19=15,26=3,38=1/1,3;
 2/9=110,12=2,15=1,17=6,18=5,40=1/2;
 3/5=7,11=2,16=1,17=8,25=1,30=1,70=2201,71=1,72=2,74=-5,124=41/1,2,3;
 4//1;
 5/5=2,38=5,53=2/2;
 6/7=2,8=2,9=2,10=2,28=1,96=20/1;
 7/30=1/1,2,3,16;
 1/6=300,18=20,19=15,26=3/3(2);
 2/9=110,15=1/2;
 99//99;
 2/9=110,15=1/2;
 3/5=7,6=1,11=2,16=1,17=8,25=1,30=1,70=2205,71=1,72=2,74=-5,82=7,124=41/1,2,3;
 4/5=5,16=3,69=1/1;
 5/5=2,38=5,53=2/2;
 7/30=1/1,2,3,16;
 1/6=300,18=20,19=15,26=3/3(-5);
 2/9=110,15=1/2;
 6/7=2,8=2,9=2,10=2,19=2,28=1,96=20/1;
 99/9=1/99;
 Leave Link    1 at Wed Jul 10 09:14:45 2024, MaxMem=  2684354560 cpu:               1.1 elap:               0.1
 (Enter /mnt/data/applications/G16/g16/l101.exe)
 -------------------
 Title Card Required
 -------------------
 Symbolic Z-matrix:
 Charge =  0 Multiplicity = 1
 C                    -6.87729   3.5121    2.77972 
 H                    -6.10533   2.90106   2.36065 
 H                    -7.09515   2.80709   3.55458 
 C                    -6.48832   4.40004   3.98349 
 H                    -5.5337    4.85575   3.82243 
 H                    -6.44675   3.7604    4.84023 
 C                    -7.49251   5.5448    4.20497 
 H                    -7.3048    5.97501   5.16653 
 H                    -7.35351   6.28249   3.44248 
 C                    -9.29091   4.01865   3.04219 
 N                    -8.27181   3.14835   2.42646 
 H                    -8.41317   2.22158   2.77454 
 O                    -10.49155   3.89244   2.68715 
 C                    -8.93897   5.07626   4.09465 
 C                    -9.90327   5.62331   4.87415 
 C                    -10.86801   6.16984   5.65322 
 H                    -11.03265   5.79596   6.64219 
 C                    -11.72742   7.32901   5.11528 
 C                    -12.97563   6.76054   4.41495 
 H                    -12.67403   6.13323   3.60227 
 H                    -13.54733   6.18748   5.11474 
 H                    -13.5728   7.56592   4.04125 
 C                    -12.16147   8.23193   6.28488 
 H                    -11.29418   8.6269    6.77143 
 H                    -12.75862   9.03732   5.91114 
 H                    -12.73316   7.65894   6.98469 
 C                    -10.9046   8.15372   4.10807 
 H                    -10.03733   8.54872   4.59465 
 H                    -10.603    7.52639   3.29542 
 H                    -11.50176   8.95908   3.73436 
 
 ITRead=  0  0  0  0  0  0  0  0  0  0  0  0  0  0  0  0  0  0  0  0
 ITRead=  0  0  0  0  0  0  0  0  0  0
 MicOpt= -1 -1 -1 -1 -1 -1 -1 -1 -1 -1 -1 -1 -1 -1 -1 -1 -1 -1 -1 -1
 MicOpt= -1 -1 -1 -1 -1 -1 -1 -1 -1 -1
 NAtoms=     30 NQM=       30 NQMF=       0 NMMI=      0 NMMIF=      0
                NMic=       0 NMicF=      0.
                    Isotopes and Nuclear Properties:
 (Nuclear quadrupole moments (NQMom) in fm**2, nuclear magnetic moments (NMagM)
  in nuclear magnetons)

  Atom         1           2           3           4           5           6           7           8           9          10
 IAtWgt=          12           1           1          12           1           1          12           1           1          12
 AtmWgt=  12.0000000   1.0078250   1.0078250  12.0000000   1.0078250   1.0078250  12.0000000   1.0078250   1.0078250  12.0000000
 NucSpn=           0           1           1           0           1           1           0           1           1           0
 AtZEff=  -0.0000000  -0.0000000  -0.0000000  -0.0000000  -0.0000000  -0.0000000  -0.0000000  -0.0000000  -0.0000000  -0.0000000
 NQMom=    0.0000000   0.0000000   0.0000000   0.0000000   0.0000000   0.0000000   0.0000000   0.0000000   0.0000000   0.0000000
 NMagM=    0.0000000   2.7928460   2.7928460   0.0000000   2.7928460   2.7928460   0.0000000   2.7928460   2.7928460   0.0000000
 AtZNuc=   6.0000000   1.0000000   1.0000000   6.0000000   1.0000000   1.0000000   6.0000000   1.0000000   1.0000000   6.0000000

  Atom        11          12          13          14          15          16          17          18          19          20
 IAtWgt=          14           1          16          12          12          12           1          12          12           1
 AtmWgt=  14.0030740   1.0078250  15.9949146  12.0000000  12.0000000  12.0000000   1.0078250  12.0000000  12.0000000   1.0078250
 NucSpn=           2           1           0           0           0           0           1           0           0           1
 AtZEff=  -0.0000000  -0.0000000  -0.0000000  -0.0000000  -0.0000000  -0.0000000  -0.0000000  -0.0000000  -0.0000000  -0.0000000
 NQMom=    2.0440000   0.0000000   0.0000000   0.0000000   0.0000000   0.0000000   0.0000000   0.0000000   0.0000000   0.0000000
 NMagM=    0.4037610   2.7928460   0.0000000   0.0000000   0.0000000   0.0000000   2.7928460   0.0000000   0.0000000   2.7928460
 AtZNuc=   7.0000000   1.0000000   8.0000000   6.0000000   6.0000000   6.0000000   1.0000000   6.0000000   6.0000000   1.0000000

  Atom        21          22          23          24          25          26          27          28          29          30
 IAtWgt=           1           1          12           1           1           1          12           1           1           1
 AtmWgt=   1.0078250   1.0078250  12.0000000   1.0078250   1.0078250   1.0078250  12.0000000   1.0078250   1.0078250   1.0078250
 NucSpn=           1           1           0           1           1           1           0           1           1           1
 AtZEff=  -0.0000000  -0.0000000  -0.0000000  -0.0000000  -0.0000000  -0.0000000  -0.0000000  -0.0000000  -0.0000000  -0.0000000
 NQMom=    0.0000000   0.0000000   0.0000000   0.0000000   0.0000000   0.0000000   0.0000000   0.0000000   0.0000000   0.0000000
 NMagM=    2.7928460   2.7928460   0.0000000   2.7928460   2.7928460   2.7928460   0.0000000   2.7928460   2.7928460   2.7928460
 AtZNuc=   1.0000000   1.0000000   6.0000000   1.0000000   1.0000000   1.0000000   6.0000000   1.0000000   1.0000000   1.0000000
 Leave Link  101 at Wed Jul 10 09:14:45 2024, MaxMem=  2684354560 cpu:               5.2 elap:               0.5
 (Enter /mnt/data/applications/G16/g16/l103.exe)

 GradGradGradGradGradGradGradGradGradGradGradGradGradGradGradGradGradGrad
 Berny optimization.
 Initialization pass.
                           ----------------------------
                           !    Initial Parameters    !
                           ! (Angstroms and Degrees)  !
 --------------------------                            --------------------------
 ! Name  Definition              Value          Derivative Info.                !
 --------------------------------------------------------------------------------
 ! R1    R(1,2)                  1.07           estimate D2E/DX2                !
 ! R2    R(1,3)                  1.07           estimate D2E/DX2                !
 ! R3    R(1,4)                  1.5456         estimate D2E/DX2                !
 ! R4    R(1,11)                 1.4838         estimate D2E/DX2                !
 ! R5    R(4,5)                  1.07           estimate D2E/DX2                !
 ! R6    R(4,6)                  1.07           estimate D2E/DX2                !
 ! R7    R(4,7)                  1.5388         estimate D2E/DX2                !
 ! R8    R(7,8)                  1.07           estimate D2E/DX2                !
 ! R9    R(7,9)                  1.07           estimate D2E/DX2                !
 ! R10   R(7,14)                 1.5245         estimate D2E/DX2                !
 ! R11   R(10,11)                1.4748         estimate D2E/DX2                !
 ! R12   R(10,13)                1.2584         estimate D2E/DX2                !
 ! R13   R(10,14)                1.533          estimate D2E/DX2                !
 ! R14   R(11,12)                1.0            estimate D2E/DX2                !
 ! R15   R(14,15)                1.3553         estimate D2E/DX2                !
 ! R16   R(15,16)                1.3551         estimate D2E/DX2                !
 ! R17   R(16,17)                1.07           estimate D2E/DX2                !
 ! R18   R(16,18)                1.54           estimate D2E/DX2                !
 ! R19   R(18,19)                1.54           estimate D2E/DX2                !
 ! R20   R(18,23)                1.54           estimate D2E/DX2                !
 ! R21   R(18,27)                1.54           estimate D2E/DX2                !
 ! R22   R(19,20)                1.07           estimate D2E/DX2                !
 ! R23   R(19,21)                1.07           estimate D2E/DX2                !
 ! R24   R(19,22)                1.07           estimate D2E/DX2                !
 ! R25   R(23,24)                1.07           estimate D2E/DX2                !
 ! R26   R(23,25)                1.07           estimate D2E/DX2                !
 ! R27   R(23,26)                1.07           estimate D2E/DX2                !
 ! R28   R(27,28)                1.07           estimate D2E/DX2                !
 ! R29   R(27,29)                1.07           estimate D2E/DX2                !
 ! R30   R(27,30)                1.07           estimate D2E/DX2                !
 ! A1    A(2,1,3)               93.1095         estimate D2E/DX2                !
 ! A2    A(2,1,4)              116.8434         estimate D2E/DX2                !
 ! A3    A(2,1,11)             116.4098         estimate D2E/DX2                !
 ! A4    A(3,1,4)               82.2855         estimate D2E/DX2                !
 ! A5    A(3,1,11)              79.6031         estimate D2E/DX2                !
 ! A6    A(4,1,11)             124.2479         estimate D2E/DX2                !
 ! A7    A(1,4,5)              110.6084         estimate D2E/DX2                !
 ! A8    A(1,4,6)              106.8562         estimate D2E/DX2                !
 ! A9    A(1,4,7)              112.0405         estimate D2E/DX2                !
 ! A10   A(5,4,6)              109.9051         estimate D2E/DX2                !
 ! A11   A(5,4,7)              106.6801         estimate D2E/DX2                !
 ! A12   A(6,4,7)              110.7825         estimate D2E/DX2                !
 ! A13   A(4,7,8)              108.2987         estimate D2E/DX2                !
 ! A14   A(4,7,9)              108.9984         estimate D2E/DX2                !
 ! A15   A(4,7,14)             112.3415         estimate D2E/DX2                !
 ! A16   A(8,7,9)              109.9016         estimate D2E/DX2                !
 ! A17   A(8,7,14)             110.7971         estimate D2E/DX2                !
 ! A18   A(9,7,14)             106.4744         estimate D2E/DX2                !
 ! A19   A(11,10,13)           118.8363         estimate D2E/DX2                !
 ! A20   A(11,10,14)           122.3505         estimate D2E/DX2                !
 ! A21   A(13,10,14)           118.8126         estimate D2E/DX2                !
 ! A22   A(1,11,10)            113.9131         estimate D2E/DX2                !
 ! A23   A(1,11,12)            106.091          estimate D2E/DX2                !
 ! A24   A(10,11,12)           107.6911         estimate D2E/DX2                !
 ! A25   A(7,14,10)            118.6566         estimate D2E/DX2                !
 ! A26   A(7,14,15)            120.6264         estimate D2E/DX2                !
 ! A27   A(10,14,15)           120.6631         estimate D2E/DX2                !
 ! A28   A(15,16,17)           119.9979         estimate D2E/DX2                !
 ! A29   A(15,16,18)           120.0027         estimate D2E/DX2                !
 ! A30   A(17,16,18)           119.9995         estimate D2E/DX2                !
 ! A31   A(16,18,19)           109.4702         estimate D2E/DX2                !
 ! A32   A(16,18,23)           109.47           estimate D2E/DX2                !
 ! A33   A(16,18,27)           109.474          estimate D2E/DX2                !
 ! A34   A(19,18,23)           109.4727         estimate D2E/DX2                !
 ! A35   A(19,18,27)           109.4701         estimate D2E/DX2                !
 ! A36   A(23,18,27)           109.4704         estimate D2E/DX2                !
 ! A37   A(18,19,20)           109.4715         estimate D2E/DX2                !
 ! A38   A(18,19,21)           109.4712         estimate D2E/DX2                !
 ! A39   A(18,19,22)           109.4708         estimate D2E/DX2                !
 ! A40   A(20,19,21)           109.4717         estimate D2E/DX2                !
 ! A41   A(20,19,22)           109.4707         estimate D2E/DX2                !
 ! A42   A(21,19,22)           109.4714         estimate D2E/DX2                !
 ! A43   A(18,23,24)           109.4708         estimate D2E/DX2                !
 ! A44   A(18,23,25)           109.4712         estimate D2E/DX2                !
 ! A45   A(18,23,26)           109.4713         estimate D2E/DX2                !
 ! A46   A(24,23,25)           109.4711         estimate D2E/DX2                !
 ! A47   A(24,23,26)           109.4709         estimate D2E/DX2                !
 ! A48   A(25,23,26)           109.472          estimate D2E/DX2                !
 ! A49   A(18,27,28)           109.4713         estimate D2E/DX2                !
 ! A50   A(18,27,29)           109.4722         estimate D2E/DX2                !
 ! A51   A(18,27,30)           109.4703         estimate D2E/DX2                !
 ! A52   A(28,27,29)           109.4712         estimate D2E/DX2                !
 ! A53   A(28,27,30)           109.4708         estimate D2E/DX2                !
 ! A54   A(29,27,30)           109.4716         estimate D2E/DX2                !
 ! A55   L(14,15,16,28,-1)     180.018          estimate D2E/DX2                !
 ! A56   L(14,15,16,28,-2)     179.9699         estimate D2E/DX2                !
 ! D1    D(2,1,4,5)             42.2366         estimate D2E/DX2                !
 ! D2    D(2,1,4,6)            -77.3676         estimate D2E/DX2                !
 ! D3    D(2,1,4,7)            161.1226         estimate D2E/DX2                !
 ! D4    D(3,1,4,5)            131.8238         estimate D2E/DX2                !
 ! D5    D(3,1,4,6)             12.2196         estimate D2E/DX2                !
 ! D6    D(3,1,4,7)           -109.2902         estimate D2E/DX2                !
 ! D7    D(11,1,4,5)          -156.3886         estimate D2E/DX2                !
 ! D8    D(11,1,4,6)            84.0072         estimate D2E/DX2                !
 ! D9    D(11,1,4,7)           -37.5027         estimate D2E/DX2                !
 ! D10   D(2,1,11,10)          179.514          estimate D2E/DX2                !
 ! D11   D(2,1,11,12)           61.2274         estimate D2E/DX2                !
 ! D12   D(3,1,11,10)           91.2068         estimate D2E/DX2                !
 ! D13   D(3,1,11,12)          -27.0798         estimate D2E/DX2                !
 ! D14   D(4,1,11,10)           18.0661         estimate D2E/DX2                !
 ! D15   D(4,1,11,12)         -100.2205         estimate D2E/DX2                !
 ! D16   D(1,4,7,8)            166.9239         estimate D2E/DX2                !
 ! D17   D(1,4,7,9)            -73.535          estimate D2E/DX2                !
 ! D18   D(1,4,7,14)            44.2246         estimate D2E/DX2                !
 ! D19   D(5,4,7,8)            -71.897          estimate D2E/DX2                !
 ! D20   D(5,4,7,9)             47.6442         estimate D2E/DX2                !
 ! D21   D(5,4,7,14)           165.4038         estimate D2E/DX2                !
 ! D22   D(6,4,7,8)             47.6982         estimate D2E/DX2                !
 ! D23   D(6,4,7,9)            167.2394         estimate D2E/DX2                !
 ! D24   D(6,4,7,14)           -75.001          estimate D2E/DX2                !
 ! D25   D(4,7,14,10)          -37.4293         estimate D2E/DX2                !
 ! D26   D(4,7,14,15)          145.2219         estimate D2E/DX2                !
 ! D27   D(8,7,14,10)         -158.7081         estimate D2E/DX2                !
 ! D28   D(8,7,14,15)           23.9431         estimate D2E/DX2                !
 ! D29   D(9,7,14,10)           81.8171         estimate D2E/DX2                !
 ! D30   D(9,7,14,15)          -95.5317         estimate D2E/DX2                !
 ! D31   D(13,10,11,1)         171.9588         estimate D2E/DX2                !
 ! D32   D(13,10,11,12)        -70.6751         estimate D2E/DX2                !
 ! D33   D(14,10,11,1)          -7.7462         estimate D2E/DX2                !
 ! D34   D(14,10,11,12)        109.6199         estimate D2E/DX2                !
 ! D35   D(11,10,14,7)          19.0589         estimate D2E/DX2                !
 ! D36   D(11,10,14,15)       -163.5932         estimate D2E/DX2                !
 ! D37   D(13,10,14,7)        -160.6461         estimate D2E/DX2                !
 ! D38   D(13,10,14,15)         16.7017         estimate D2E/DX2                !
 ! D39   D(7,14,16,17)         -84.7373         estimate D2E/DX2                !
 ! D40   D(7,14,16,18)          95.282          estimate D2E/DX2                !
 ! D41   D(10,14,16,17)         97.9674         estimate D2E/DX2                !
 ! D42   D(10,14,16,18)        -82.0134         estimate D2E/DX2                !
 ! D43   D(15,16,18,19)         90.0026         estimate D2E/DX2                !
 ! D44   D(15,16,18,23)       -149.997          estimate D2E/DX2                !
 ! D45   D(15,16,18,27)        -29.997          estimate D2E/DX2                !
 ! D46   D(17,16,18,19)        -89.9972         estimate D2E/DX2                !
 ! D47   D(17,16,18,23)         30.0033         estimate D2E/DX2                !
 ! D48   D(17,16,18,27)        150.0032         estimate D2E/DX2                !
 ! D49   D(16,18,19,20)        -60.0049         estimate D2E/DX2                !
 ! D50   D(16,18,19,21)         59.9958         estimate D2E/DX2                !
 ! D51   D(16,18,19,22)        179.9957         estimate D2E/DX2                !
 ! D52   D(23,18,19,20)        179.9963         estimate D2E/DX2                !
 ! D53   D(23,18,19,21)        -60.0029         estimate D2E/DX2                !
 ! D54   D(23,18,19,22)         59.997          estimate D2E/DX2                !
 ! D55   D(27,18,19,20)         59.9971         estimate D2E/DX2                !
 ! D56   D(27,18,19,21)        179.9979         estimate D2E/DX2                !
 ! D57   D(27,18,19,22)        -60.0023         estimate D2E/DX2                !
 ! D58   D(16,18,23,24)         60.002          estimate D2E/DX2                !
 ! D59   D(16,18,23,25)       -179.9984         estimate D2E/DX2                !
 ! D60   D(16,18,23,26)        -59.9974         estimate D2E/DX2                !
 ! D61   D(19,18,23,24)       -179.9992         estimate D2E/DX2                !
 ! D62   D(19,18,23,25)        -59.9995         estimate D2E/DX2                !
 ! D63   D(19,18,23,26)         60.0015         estimate D2E/DX2                !
 ! D64   D(27,18,23,24)        -60.0001         estimate D2E/DX2                !
 ! D65   D(27,18,23,25)         59.9995         estimate D2E/DX2                !
 ! D66   D(27,18,23,26)       -179.9995         estimate D2E/DX2                !
 ! D67   D(16,18,27,28)        -60.0009         estimate D2E/DX2                !
 ! D68   D(16,18,27,29)         59.9997         estimate D2E/DX2                !
 ! D69   D(16,18,27,30)       -179.9998         estimate D2E/DX2                !
 ! D70   D(19,18,27,28)        179.9994         estimate D2E/DX2                !
 ! D71   D(19,18,27,29)        -60.0            estimate D2E/DX2                !
 ! D72   D(19,18,27,30)         60.0005         estimate D2E/DX2                !
 ! D73   D(23,18,27,28)         59.9988         estimate D2E/DX2                !
 ! D74   D(23,18,27,29)        179.9994         estimate D2E/DX2                !
 ! D75   D(23,18,27,30)        -60.0002         estimate D2E/DX2                !
 --------------------------------------------------------------------------------
 Trust Radius=3.00D-01 FncErr=1.00D-07 GrdErr=1.00D-06 EigMax=2.50D+02 EigMin=1.00D-04
 Number of steps in this run=    180 maximum allowed number of steps=    180.
 GradGradGradGradGradGradGradGradGradGradGradGradGradGradGradGradGradGrad

 Leave Link  103 at Wed Jul 10 09:14:45 2024, MaxMem=  2684354560 cpu:               0.2 elap:               0.0
 (Enter /mnt/data/applications/G16/g16/l202.exe)
                          Input orientation:                          
 ---------------------------------------------------------------------
 Center     Atomic      Atomic             Coordinates (Angstroms)
 Number     Number       Type             X           Y           Z
 ---------------------------------------------------------------------
      1          6           0       -6.877288    3.512098    2.779722
      2          1           0       -6.105335    2.901057    2.360651
      3          1           0       -7.095145    2.807090    3.554575
      4          6           0       -6.488317    4.400037    3.983485
      5          1           0       -5.533697    4.855754    3.822426
      6          1           0       -6.446746    3.760403    4.840233
      7          6           0       -7.492507    5.544804    4.204972
      8          1           0       -7.304799    5.975011    5.166528
      9          1           0       -7.353509    6.282487    3.442483
     10          6           0       -9.290914    4.018649    3.042194
     11          7           0       -8.271811    3.148348    2.426461
     12          1           0       -8.413170    2.221579    2.774537
     13          8           0      -10.491549    3.892435    2.687146
     14          6           0       -8.938968    5.076263    4.094652
     15          6           0       -9.903268    5.623307    4.874146
     16          6           0      -10.868013    6.169843    5.653218
     17          1           0      -11.032649    5.795956    6.642188
     18          6           0      -11.727421    7.329008    5.115280
     19          6           0      -12.975633    6.760536    4.414952
     20          1           0      -12.674032    6.133232    3.602272
     21          1           0      -13.547330    6.187483    5.114744
     22          1           0      -13.572796    7.565918    4.041254
     23          6           0      -12.161468    8.231932    6.284875
     24          1           0      -11.294182    8.626903    6.771435
     25          1           0      -12.758616    9.037319    5.911137
     26          1           0      -12.733155    7.658936    6.984693
     27          6           0      -10.904599    8.153722    4.108073
     28          1           0      -10.037326    8.548720    4.594652
     29          1           0      -10.602997    7.526388    3.295423
     30          1           0      -11.501763    8.959084    3.734358
 ---------------------------------------------------------------------
                    Distance matrix (angstroms):
                    1          2          3          4          5
     1  C    0.000000
     2  H    1.070002   0.000000
     3  H    1.069998   1.553709   0.000000
     4  C    1.545568   2.242143   1.757750   0.000000
     5  H    2.167459   2.506870   2.589766   1.070008   0.000000
     6  H    2.119606   2.646388   1.726889   1.069989   1.751966
     7  C    2.557681   3.509298   2.841830   1.538814   2.111415
     8  H    3.456234   4.331380   3.560628   2.132318   2.489207
     9  H    2.888095   3.763292   3.486789   2.141228   2.343424
    10  C    2.480136   3.444043   2.559650   2.980946   3.927618
    11  N    1.483847   2.181537   1.665425   2.678041   3.515853
    12  H    2.006090   2.441126   1.639656   3.148380   4.040830
    13  O    3.635397   4.508692   3.669600   4.238399   5.176595
    14  C    2.902788   3.970864   2.973300   2.544667   3.423244
    15  C    4.242685   5.305903   4.190215   3.735179   4.559430
    16  C    5.589855   6.648990   5.472380   5.010186   5.790817
    17  H    6.115691   7.140758   5.828431   5.446857   6.250881
    18  C    6.599047   7.668285   6.658943   6.108031   6.793429
    19  C    7.100432   8.143508   7.137935   6.916892   7.704654
    20  H    6.414763   7.425387   6.495343   6.435244   7.257052
    21  H    7.556420   8.588884   7.449287   7.369151   8.225686
    22  H    7.928099   8.963723   8.052531   7.759896   8.486459
    23  C    7.904776   8.971873   7.908923   7.222497   7.835150
    24  H    7.848819   8.897441   7.864497   6.981075   7.490087
    25  H    8.655857   9.722439   8.743228   8.033485   8.605095
    26  H    8.316804   9.378016   8.191048   7.656741   8.348052
    27  C    6.287164   7.326453   6.588230   5.797346   6.309103
    28  H    6.216702   7.235152   6.534869   5.493685   5.875118
    29  H    5.501035   6.518930   5.885912   5.213261   5.753939
    30  H    7.208798   8.228500   7.569520   6.780975   7.243127
                    6          7          8          9         10
     6  H    0.000000
     7  C    2.163622   0.000000
     8  H    2.397334   1.070000   0.000000
     9  H    3.022719   1.069993   1.751926   0.000000
    10  C    3.374749   2.629728   3.504968   3.006449   0.000000
    11  N    3.087357   3.084383   4.053776   3.420293   1.474829
    12  H    3.240664   3.733308   4.586759   4.249706   2.017804
    13  O    4.584065   3.745446   4.543108   4.016239   1.258377
    14  C    2.915227   1.524450   2.151086   2.096182   1.532998
    15  C    3.926717   2.503143   2.638413   2.997574   2.511166
    16  C    5.100387   3.725873   3.601572   4.153526   3.732603
    17  H    5.331137   4.305310   4.013290   4.900092   4.376347
    18  C    6.379351   4.684713   4.625529   4.798392   4.603556
    19  C    7.197779   5.620210   5.774103   5.725601   4.793700
    20  H    6.778050   5.249542   5.594693   5.325015   4.028727
    21  H    7.508953   6.156427   6.246360   6.416300   5.207339
    22  H    8.117937   6.409494   6.563917   6.378499   5.649403
    23  C    7.398622   5.774586   5.470980   5.915742   6.042087
    24  H    7.135124   5.526191   5.052072   5.666314   6.257502
    25  H    8.296528   6.545270   6.298911   6.549698   6.741131
    26  H    7.701702   6.297681   5.967275   6.586537   6.375266
    27  C    6.301568   4.296302   4.338855   4.068756   4.564965
    28  H    5.990038   3.956193   3.797068   3.696781   4.846525
    29  H    5.817517   3.798565   4.097061   3.482541   3.753655
    30  H    7.335015   5.287052   5.345120   4.945441   5.456634
                   11         12         13         14         15
    11  N    0.000000
    12  H    1.000020   0.000000
    13  O    2.355601   2.668156   0.000000
    14  C    2.635302   3.188791   2.406871   0.000000
    15  C    3.844247   4.266205   2.850431   1.355265   0.000000
    16  C    5.126564   5.468258   3.758443   2.710399   1.355134
    17  H    5.692487   5.881885   4.422503   3.375115   2.105061
    18  C    6.053834   6.522972   4.385572   3.727199   2.509003
    19  C    6.255233   6.641473   4.169171   4.385662   3.308107
    20  H    5.447166   5.843041   3.259120   3.912842   3.091087
    21  H    6.655397   6.896707   4.527502   4.848959   3.695317
    22  H    7.086813   7.535799   4.982185   5.260570   4.234723
    23  C    7.473929   7.905476   5.879074   5.013964   3.727539
    24  H    7.617617   8.081064   6.304032   5.031823   3.815224
    25  H    8.182565   8.670379   6.481014   5.794765   4.569884
    26  H    7.811944   8.121117   6.138423   5.423873   4.075102
    27  C    5.900267   6.570834   4.510898   3.651662   2.827106
    28  H    6.081292   6.781108   5.052315   3.676187   2.941791
    29  H    5.035549   5.762609   3.686195   3.067714   2.569767
    30  H    6.775532   7.473596   5.271444   4.666266   3.870622
                   16         17         18         19         20
    16  C    0.000000
    17  H    1.070027   0.000000
    18  C    1.540007   2.272532   0.000000
    19  C    2.514812   3.109048   1.540017   0.000000
    20  H    2.733025   3.471164   2.148289   1.070010   0.000000
    21  H    2.732948   2.968164   2.148289   1.070017   1.747330
    22  H    3.444315   4.043509   2.148271   1.069997   1.747304
    23  C    2.514801   2.708483   1.540007   2.514852   3.444361
    24  H    2.732978   2.845938   2.148273   3.444359   4.262156
    25  H    3.444317   3.744306   2.148274   2.733022   3.711029
    26  H    2.732943   2.545530   2.148269   2.733036   3.711070
    27  C    2.514873   3.463696   1.540018   2.514820   2.732967
    28  H    2.733068   3.572224   2.148295   3.444349   3.711013
    29  H    2.733065   3.792074   2.148294   2.732998   2.514802
    30  H    3.444347   4.322143   2.148260   2.732968   3.062206
                   21         22         23         24         25
    21  H    0.000000
    22  H    1.747316   0.000000
    23  C    2.733055   2.732994   0.000000
    24  H    3.711074   3.711018   1.070013   0.000000
    25  H    3.062332   2.514831   1.070007   1.747318   0.000000
    26  H    2.514908   3.062268   1.069998   1.747308   1.747316
    27  C    3.444344   2.732993   2.514817   2.732979   2.732977
    28  H    4.262166   3.711023   2.732981   2.514793   3.062234
    29  H    3.711023   3.062276   3.444335   3.711001   3.711006
    30  H    3.711008   2.514811   2.732966   3.062233   2.514790
                   26         27         28         29         30
    26  H    0.000000
    27  C    3.444325   0.000000
    28  H    3.710998   1.070021   0.000000
    29  H    4.262142   1.070005   1.747324   0.000000
    30  H    3.710983   1.069989   1.747306   1.747302   0.000000
 Symmetry turned off by external request.
 Stoichiometry    C11H17NO
 Framework group  C1[X(C11H17NO)]
 Deg. of freedom    84
 Full point group                 C1      NOp   1
 Rotational constants (GHZ):           1.6640262           0.3940467           0.3474245
 Leave Link  202 at Wed Jul 10 09:14:45 2024, MaxMem=  2684354560 cpu:               0.1 elap:               0.0
 (Enter /mnt/data/applications/G16/g16/l301.exe)
 General basis read from cards:  (5D, 7F)
 Centers:       1      4      7     10     14     15     16     18     19     23
 Centers:      27      2      3      5      6      8      9     12     17     20
 Centers:      21     22     24     25     26     28     29     30     13     11
 cc-pVTZ
 ****
 ======================================================================================================
                                       Pseudopotential Parameters
 ======================================================================================================
  Center     Atomic      Valence      Angular      Power
  Number     Number     Electrons     Momentum     of R      Exponent        Coefficient   SO-Coeffient
 ======================================================================================================
    1          6
                                   No pseudopotential on this center.
    2          1
                                   No pseudopotential on this center.
    3          1
                                   No pseudopotential on this center.
    4          6
                                   No pseudopotential on this center.
    5          1
                                   No pseudopotential on this center.
    6          1
                                   No pseudopotential on this center.
    7          6
                                   No pseudopotential on this center.
    8          1
                                   No pseudopotential on this center.
    9          1
                                   No pseudopotential on this center.
   10          6
                                   No pseudopotential on this center.
   11          7
                                   No pseudopotential on this center.
   12          1
                                   No pseudopotential on this center.
   13          8
                                   No pseudopotential on this center.
   14          6
                                   No pseudopotential on this center.
   15          6
                                   No pseudopotential on this center.
   16          6
                                   No pseudopotential on this center.
   17          1
                                   No pseudopotential on this center.
   18          6
                                   No pseudopotential on this center.
   19          6
                                   No pseudopotential on this center.
   20          1
                                   No pseudopotential on this center.
   21          1
                                   No pseudopotential on this center.
   22          1
                                   No pseudopotential on this center.
   23          6
                                   No pseudopotential on this center.
   24          1
                                   No pseudopotential on this center.
   25          1
                                   No pseudopotential on this center.
   26          1
                                   No pseudopotential on this center.
   27          6
                                   No pseudopotential on this center.
   28          1
                                   No pseudopotential on this center.
   29          1
                                   No pseudopotential on this center.
   30          1
                                   No pseudopotential on this center.
 ======================================================================================================
 Ernie: Thresh=  0.10000D-02 Tol=  0.10000D-05 Strict=F.
 Ernie:  39 primitive shells out of 474 were deleted.
   628 basis functions,   965 primitive gaussians,   710 cartesian basis functions
    49 alpha electrons       49 beta electrons
       nuclear repulsion energy       785.3428472308 Hartrees.
 IExCor=  402 DFT=T Ex+Corr=B3LYP ExCW=0 ScaHFX=  0.200000
 ScaDFX=  0.800000  0.720000  1.000000  0.810000 ScalE2=  1.000000  1.000000
 IRadAn=      5 IRanWt=     -1 IRanGd=            0 ICorTp=0 IEmpDi=141
 NAtoms=   30 NActive=   30 NUniq=   30 SFac= 1.00D+00 NAtFMM=   60 NAOKFM=F Big=F
 Integral buffers will be    131072 words long.
 Raffenetti 2 integral format.
 Two-electron integral symmetry is turned off.
 R6Disp:  Grimme-D3(BJ) Dispersion energy=       -0.0530736995 Hartrees.
 Nuclear repulsion after empirical dispersion term =      785.2897735312 Hartrees.
 ------------------------------------------------------------------------------
 Polarizable Continuum Model (PCM)
 =================================
 Model                : PCM.
 Atomic radii         : UFF (Universal Force Field).
 Polarization charges : Total charges.
 Charge compensation  : None.
 Solution method      : On-the-fly selection.
 Cavity type          : Scaled VdW (van der Waals Surface) (Alpha=1.100).
 Cavity algorithm     : GePol (No added spheres)
                        Default sphere list used, NSphG=   30.
                        Lebedev-Laikov grids with approx.  5.0 points / Ang**2.
                        Smoothing algorithm: York/Karplus (Gamma=1.0000).
                        Polarization charges: spherical gaussians, with
                                              point-specific exponents (IZeta= 3).
                        Self-potential: point-specific (ISelfS= 7).
                        Self-field    : sphere-specific E.n sum rule (ISelfD= 2).
 1st derivatives      : Analytical E(r).r(x)/FMM algorithm (CHGder, D1EAlg=3).
                        Cavity 1st derivative terms included.
 Solvent              : Acetonitrile, Eps=  35.688000 Eps(inf)=   1.806874
 ------------------------------------------------------------------------------
 GePol: Number of generator spheres                  =      30
 GePol: Total number of spheres                      =      30
 GePol: Number of exposed spheres                    =      30 (100.00%)
 GePol: Number of points                             =    2155
 GePol: Average weight of points                     =       0.13
 GePol: Minimum weight of points                     =   0.22D-11
 GePol: Maximum weight of points                     =    0.20577
 GePol: Number of points with low weight             =     171
 GePol: Fraction of low-weight points (<1% of avg)   =       7.94%
 GePol: Cavity surface area                          =    280.500 Ang**2
 GePol: Cavity volume                                =    292.119 Ang**3
 Leave Link  301 at Wed Jul 10 09:14:45 2024, MaxMem=  2684354560 cpu:               1.6 elap:               0.2
 (Enter /mnt/data/applications/G16/g16/l302.exe)
 NPDir=0 NMtPBC=     1 NCelOv=     1 NCel=       1 NClECP=     1 NCelD=      1
         NCelK=      1 NCelE2=     1 NClLst=     1 CellRange=     0.0.
 One-electron integrals computed using PRISM.
   1 Symmetry operations used in ECPInt.
 ECPInt:  NShTT=   27028 NPrTT=   95388 LenC2=   24325 LenP2D=   60801.
 LDataN:  DoStor=T MaxTD1= 6 Len=  172
 NBasis=   628 RedAO= T EigKep=  3.11D-05  NBF=   628
 NBsUse=   628 1.00D-06 EigRej= -1.00D+00 NBFU=   628
 Precomputing XC quadrature grid using
 IXCGrd= 4 IRadAn=           5 IRanWt=          -1 IRanGd=           0 AccXCQ= 0.00D+00.
 Generated NRdTot=       0 NPtTot=           0 NUsed=           0 NTot=          32
 NSgBfM=   709   709   709   709   709 MxSgAt=    30 MxSgA2=    30.
 Leave Link  302 at Wed Jul 10 09:14:48 2024, MaxMem=  2684354560 cpu:              25.9 elap:               2.2
 (Enter /mnt/data/applications/G16/g16/l303.exe)
 DipDrv:  MaxL=1.
 Leave Link  303 at Wed Jul 10 09:14:48 2024, MaxMem=  2684354560 cpu:               1.6 elap:               0.2
 (Enter /mnt/data/applications/G16/g16/l401.exe)
 ExpMin= 1.03D-01 ExpMax= 1.53D+04 ExpMxC= 5.22D+02 IAcc=3 IRadAn=         5 AccDes= 0.00D+00
 Harris functional with IExCor=  402 and IRadAn=       5 diagonalized for initial guess.
 HarFok:  IExCor=  402 AccDes= 0.00D+00 IRadAn=         5 IDoV= 1 UseB2=F ITyADJ=14
 ICtDFT=  3500011 ScaDFX=  1.000000  1.000000  1.000000  1.000000
 FoFCou: FMM=F IPFlag=           0 FMFlag=      100000 FMFlg1=           0
         NFxFlg=           0 DoJE=T BraDBF=F KetDBF=T FulRan=T
         wScrn=  0.000000 ICntrl=       500 IOpCl=  0 I1Cent=   200000004 NGrid=           0
         NMat0=    1 NMatS0=      1 NMatT0=    0 NMatD0=    1 NMtDS0=    0 NMtDT0=    0
 Symmetry not used in FoFCou.
 Harris En= -559.594290365598    
 JPrj=0 DoOrth=F DoCkMO=F.
 Leave Link  401 at Wed Jul 10 09:14:59 2024, MaxMem=  2684354560 cpu:             134.8 elap:              11.3
 (Enter /mnt/data/applications/G16/g16/l502.exe)
 Two-electron integral symmetry not used.
 Closed shell SCF:
 Using DIIS extrapolation, IDIIS=  1040.
 NGot=  2684354560 LenX=  2683333188 LenY=  2682828378
 Requested convergence on RMS density matrix=1.00D-08 within 128 cycles.
 Requested convergence on MAX density matrix=1.00D-06.
 Requested convergence on             energy=1.00D-06.
 No special actions if energy rises.
 Fock matrices will be formed incrementally for  20 cycles.

 Cycle   1  Pass 1  IDiag  1:
 FoFJK:  IHMeth= 1 ICntrl=       0 DoSepK=F KAlg= 0 I1Cent=           0 FoldK=F
 IRaf= 840000000 NMat=       1 IRICut=       1 DoRegI=T DoRafI=F ISym2E= 0 IDoP0=0 IntGTp=1.
 FoFCou: FMM=F IPFlag=           0 FMFlag=      100000 FMFlg1=           0
         NFxFlg=           0 DoJE=F BraDBF=F KetDBF=F FulRan=T
         wScrn=  0.000000 ICntrl=         0 IOpCl=  0 I1Cent=           0 NGrid=           0
         NMat0=    1 NMatS0=      1 NMatT0=    0 NMatD0=    1 NMtDS0=    0 NMtDT0=    0
 Symmetry not used in FoFCou.
 Inv3:  Mode=1 IEnd=    13932075.
 Iteration    1 A*A^-1 deviation from unit magnitude is 3.11D-15 for   1497.
 Iteration    1 A*A^-1 deviation from orthogonality  is 1.36D-15 for   1692    212.
 Iteration    1 A^-1*A deviation from unit magnitude is 3.11D-15 for   1497.
 Iteration    1 A^-1*A deviation from orthogonality  is 1.41D-15 for   1637    111.
 E= -559.005612423033    
 DIIS: error= 3.08D-02 at cycle   1 NSaved=   1.
 NSaved= 1 IEnMin= 1 EnMin= -559.005612423033     IErMin= 1 ErrMin= 3.08D-02
 ErrMax= 3.08D-02  0.00D+00 EMaxC= 1.00D-01 BMatC= 5.32D-01 BMatP= 5.32D-01
 IDIUse=3 WtCom= 6.92D-01 WtEn= 3.08D-01
 Coeff-Com:  0.100D+01
 Coeff-En:   0.100D+01
 Coeff:      0.100D+01
 Gap=     0.148 Goal=   None    Shift=    0.000
 GapD=    0.148 DampG=1.000 DampE=0.500 DampFc=0.5000 IDamp=-1.
 Damping current iteration by 5.00D-01
 RMSDP=2.73D-03 MaxDP=2.27D-01              OVMax= 2.13D-01

 Cycle   2  Pass 1  IDiag  1:
 RMSU=  1.37D-03    CP:  9.95D-01
 E= -559.173502006318     Delta-E=       -0.167889583286 Rises=F Damp=T
 DIIS: error= 7.34D-03 at cycle   2 NSaved=   2.
 NSaved= 2 IEnMin= 2 EnMin= -559.173502006318     IErMin= 2 ErrMin= 7.34D-03
 ErrMax= 7.34D-03  0.00D+00 EMaxC= 1.00D-01 BMatC= 5.88D-02 BMatP= 5.32D-01
 IDIUse=3 WtCom= 9.27D-01 WtEn= 7.34D-02
 Coeff-Com:  0.153D+00 0.847D+00
 Coeff-En:   0.257D+00 0.743D+00
 Coeff:      0.161D+00 0.839D+00
 Gap=     0.204 Goal=   None    Shift=    0.000
 RMSDP=8.31D-04 MaxDP=7.42D-02 DE=-1.68D-01 OVMax= 2.42D-01

 Cycle   3  Pass 1  IDiag  1:
 RMSU=  5.73D-04    CP:  9.94D-01  5.59D-01
 E= -559.417347632565     Delta-E=       -0.243845626247 Rises=F Damp=F
 DIIS: error= 1.03D-02 at cycle   3 NSaved=   3.
 NSaved= 3 IEnMin= 3 EnMin= -559.417347632565     IErMin= 2 ErrMin= 7.34D-03
 ErrMax= 1.03D-02  0.00D+00 EMaxC= 1.00D-01 BMatC= 7.75D-02 BMatP= 5.88D-02
 IDIUse=2 WtCom= 0.00D+00 WtEn= 1.00D+00
 Coeff-En:   0.000D+00 0.000D+00 0.100D+01
 Coeff:      0.000D+00 0.000D+00 0.100D+01
 Gap=     0.178 Goal=   None    Shift=    0.000
 RMSDP=1.36D-03 MaxDP=1.22D-01 DE=-2.44D-01 OVMax= 2.88D-01

 Cycle   4  Pass 1  IDiag  1:
 RMSU=  6.26D-04    CP:  1.00D+00  1.21D+00 -4.27D-01
 E= -559.101690069211     Delta-E=        0.315657563354 Rises=F Damp=F
 DIIS: error= 2.48D-02 at cycle   4 NSaved=   4.
 NSaved= 4 IEnMin= 3 EnMin= -559.417347632565     IErMin= 2 ErrMin= 7.34D-03
 ErrMax= 2.48D-02  0.00D+00 EMaxC= 1.00D-01 BMatC= 4.75D-01 BMatP= 5.88D-02
 IDIUse=2 WtCom= 0.00D+00 WtEn= 1.00D+00
 Coeff-En:   0.000D+00 0.000D+00 0.805D+00 0.195D+00
 Coeff:      0.000D+00 0.000D+00 0.805D+00 0.195D+00
 Gap=     0.175 Goal=   None    Shift=    0.000
 RMSDP=8.25D-04 MaxDP=9.04D-02 DE= 3.16D-01 OVMax= 1.05D-01

 Cycle   5  Pass 1  IDiag  1:
 RMSU=  1.40D-04    CP:  9.97D-01  7.85D-01  3.57D-01  4.50D-01
 E= -559.449281983736     Delta-E=       -0.347591914525 Rises=F Damp=F
 DIIS: error= 7.26D-03 at cycle   5 NSaved=   5.
 NSaved= 5 IEnMin= 5 EnMin= -559.449281983736     IErMin= 5 ErrMin= 7.26D-03
 ErrMax= 7.26D-03  0.00D+00 EMaxC= 1.00D-01 BMatC= 3.78D-02 BMatP= 5.88D-02
 IDIUse=3 WtCom= 9.27D-01 WtEn= 7.26D-02
 Coeff-Com: -0.275D-03 0.222D-01 0.325D+00-0.850D-01 0.738D+00
 Coeff-En:   0.000D+00 0.000D+00 0.366D+00 0.000D+00 0.634D+00
 Coeff:     -0.255D-03 0.206D-01 0.328D+00-0.788D-01 0.731D+00
 Gap=     0.172 Goal=   None    Shift=    0.000
 RMSDP=2.34D-04 MaxDP=1.74D-02 DE=-3.48D-01 OVMax= 3.52D-02

 Cycle   6  Pass 1  IDiag  1:
 RMSU=  3.23D-05    CP:  9.96D-01  6.85D-01  6.19D-01  2.81D-01  7.68D-01
 E= -559.478439945970     Delta-E=       -0.029157962234 Rises=F Damp=F
 DIIS: error= 5.23D-04 at cycle   6 NSaved=   6.
 NSaved= 6 IEnMin= 6 EnMin= -559.478439945970     IErMin= 6 ErrMin= 5.23D-04
 ErrMax= 5.23D-04  0.00D+00 EMaxC= 1.00D-01 BMatC= 1.94D-04 BMatP= 3.78D-02
 IDIUse=3 WtCom= 9.95D-01 WtEn= 5.23D-03
 Coeff-Com: -0.111D-02 0.981D-02 0.171D+00-0.594D-01 0.438D+00 0.441D+00
 Coeff-En:   0.000D+00 0.000D+00 0.000D+00 0.000D+00 0.000D+00 0.100D+01
 Coeff:     -0.110D-02 0.976D-02 0.170D+00-0.590D-01 0.436D+00 0.444D+00
 Gap=     0.168 Goal=   None    Shift=    0.000
 RMSDP=1.69D-05 MaxDP=9.87D-04 DE=-2.92D-02 OVMax= 5.23D-03

 Cycle   7  Pass 1  IDiag  1:
 RMSU=  1.03D-05    CP:  9.96D-01  6.86D-01  6.17D-01  2.76D-01  8.05D-01
                    CP:  6.35D-01
 E= -559.478603820909     Delta-E=       -0.000163874939 Rises=F Damp=F
 DIIS: error= 1.25D-04 at cycle   7 NSaved=   7.
 NSaved= 7 IEnMin= 7 EnMin= -559.478603820909     IErMin= 7 ErrMin= 1.25D-04
 ErrMax= 1.25D-04  0.00D+00 EMaxC= 1.00D-01 BMatC= 2.39D-05 BMatP= 1.94D-04
 IDIUse=3 WtCom= 9.99D-01 WtEn= 1.25D-03
 Coeff-Com:  0.180D-03 0.401D-04 0.428D-01-0.173D-01 0.109D+00 0.218D+00
 Coeff-Com:  0.647D+00
 Coeff-En:   0.000D+00 0.000D+00 0.000D+00 0.000D+00 0.000D+00 0.593D-01
 Coeff-En:   0.941D+00
 Coeff:      0.180D-03 0.400D-04 0.427D-01-0.173D-01 0.109D+00 0.218D+00
 Coeff:      0.648D+00
 Gap=     0.169 Goal=   None    Shift=    0.000
 RMSDP=5.25D-06 MaxDP=3.92D-04 DE=-1.64D-04 OVMax= 1.74D-03

 Cycle   8  Pass 1  IDiag  1:
 RMSU=  3.19D-06    CP:  9.96D-01  6.86D-01  6.21D-01  2.76D-01  7.96D-01
                    CP:  7.16D-01  8.00D-01
 E= -559.478624810620     Delta-E=       -0.000020989710 Rises=F Damp=F
 DIIS: error= 5.06D-05 at cycle   8 NSaved=   8.
 NSaved= 8 IEnMin= 8 EnMin= -559.478624810620     IErMin= 8 ErrMin= 5.06D-05
 ErrMax= 5.06D-05  0.00D+00 EMaxC= 1.00D-01 BMatC= 2.64D-06 BMatP= 2.39D-05
 IDIUse=1 WtCom= 1.00D+00 WtEn= 0.00D+00
 Coeff-Com:  0.426D-03-0.134D-02 0.808D-02-0.285D-02 0.142D-01 0.725D-01
 Coeff-Com:  0.366D+00 0.543D+00
 Coeff:      0.426D-03-0.134D-02 0.808D-02-0.285D-02 0.142D-01 0.725D-01
 Coeff:      0.366D+00 0.543D+00
 Gap=     0.169 Goal=   None    Shift=    0.000
 RMSDP=2.14D-06 MaxDP=1.33D-04 DE=-2.10D-05 OVMax= 3.84D-04

 Cycle   9  Pass 1  IDiag  1:
 RMSU=  1.04D-06    CP:  9.96D-01  6.85D-01  6.22D-01  2.76D-01  7.96D-01
                    CP:  7.07D-01  8.44D-01  7.28D-01
 E= -559.478627068243     Delta-E=       -0.000002257623 Rises=F Damp=F
 DIIS: error= 6.39D-06 at cycle   9 NSaved=   9.
 NSaved= 9 IEnMin= 9 EnMin= -559.478627068243     IErMin= 9 ErrMin= 6.39D-06
 ErrMax= 6.39D-06  0.00D+00 EMaxC= 1.00D-01 BMatC= 6.04D-08 BMatP= 2.64D-06
 IDIUse=1 WtCom= 1.00D+00 WtEn= 0.00D+00
 Coeff-Com:  0.182D-03-0.546D-03 0.683D-03-0.805D-04-0.965D-03 0.157D-01
 Coeff-Com:  0.102D+00 0.217D+00 0.666D+00
 Coeff:      0.182D-03-0.546D-03 0.683D-03-0.805D-04-0.965D-03 0.157D-01
 Coeff:      0.102D+00 0.217D+00 0.666D+00
 Gap=     0.169 Goal=   None    Shift=    0.000
 RMSDP=4.47D-07 MaxDP=3.62D-05 DE=-2.26D-06 OVMax= 1.48D-04

 Cycle  10  Pass 1  IDiag  1:
 RMSU=  3.56D-07    CP:  9.96D-01  6.85D-01  6.22D-01  2.76D-01  7.96D-01
                    CP:  7.10D-01  8.51D-01  7.43D-01  7.88D-01
 E= -559.478627100360     Delta-E=       -0.000000032117 Rises=F Damp=F
 DIIS: error= 4.52D-06 at cycle  10 NSaved=  10.
 NSaved=10 IEnMin=10 EnMin= -559.478627100360     IErMin=10 ErrMin= 4.52D-06
 ErrMax= 4.52D-06  0.00D+00 EMaxC= 1.00D-01 BMatC= 2.91D-08 BMatP= 6.04D-08
 IDIUse=1 WtCom= 1.00D+00 WtEn= 0.00D+00
 Coeff-Com:  0.667D-04-0.178D-03-0.541D-03 0.207D-03-0.217D-02 0.316D-02
 Coeff-Com:  0.277D-01 0.867D-01 0.451D+00 0.434D+00
 Coeff:      0.667D-04-0.178D-03-0.541D-03 0.207D-03-0.217D-02 0.316D-02
 Coeff:      0.277D-01 0.867D-01 0.451D+00 0.434D+00
 Gap=     0.169 Goal=   None    Shift=    0.000
 RMSDP=2.25D-07 MaxDP=1.71D-05 DE=-3.21D-08 OVMax= 6.76D-05

 Cycle  11  Pass 1  IDiag  1:
 RMSU=  8.90D-08    CP:  9.96D-01  6.85D-01  6.22D-01  2.76D-01  7.96D-01
                    CP:  7.11D-01  8.52D-01  7.55D-01  8.49D-01  5.60D-01
 E= -559.478627128693     Delta-E=       -0.000000028332 Rises=F Damp=F
 DIIS: error= 1.68D-06 at cycle  11 NSaved=  11.
 NSaved=11 IEnMin=11 EnMin= -559.478627128693     IErMin=11 ErrMin= 1.68D-06
 ErrMax= 1.68D-06  0.00D+00 EMaxC= 1.00D-01 BMatC= 1.50D-09 BMatP= 2.91D-08
 IDIUse=1 WtCom= 1.00D+00 WtEn= 0.00D+00
 Coeff-Com:  0.825D-05-0.156D-04-0.427D-03 0.141D-03-0.111D-02 0.351D-04
 Coeff-Com:  0.181D-02 0.197D-01 0.147D+00 0.174D+00 0.659D+00
 Coeff:      0.825D-05-0.156D-04-0.427D-03 0.141D-03-0.111D-02 0.351D-04
 Coeff:      0.181D-02 0.197D-01 0.147D+00 0.174D+00 0.659D+00
 Gap=     0.169 Goal=   None    Shift=    0.000
 RMSDP=4.95D-08 MaxDP=2.88D-06 DE=-2.83D-08 OVMax= 9.05D-06

 Cycle  12  Pass 1  IDiag  1:
 RMSU=  3.58D-08    CP:  9.96D-01  6.85D-01  6.22D-01  2.76D-01  7.96D-01
                    CP:  7.12D-01  8.52D-01  7.57D-01  8.67D-01  5.81D-01
                    CP:  8.80D-01
 E= -559.478627129645     Delta-E=       -0.000000000952 Rises=F Damp=F
 DIIS: error= 5.80D-07 at cycle  12 NSaved=  12.
 NSaved=12 IEnMin=12 EnMin= -559.478627129645     IErMin=12 ErrMin= 5.80D-07
 ErrMax= 5.80D-07  0.00D+00 EMaxC= 1.00D-01 BMatC= 3.53D-10 BMatP= 1.50D-09
 IDIUse=1 WtCom= 1.00D+00 WtEn= 0.00D+00
 Coeff-Com: -0.645D-05 0.127D-04-0.158D-03 0.524D-04-0.283D-03-0.198D-03
 Coeff-Com: -0.280D-02-0.507D-03 0.197D-01 0.298D-01 0.370D+00 0.584D+00
 Coeff:     -0.645D-05 0.127D-04-0.158D-03 0.524D-04-0.283D-03-0.198D-03
 Coeff:     -0.280D-02-0.507D-03 0.197D-01 0.298D-01 0.370D+00 0.584D+00
 Gap=     0.169 Goal=   None    Shift=    0.000
 RMSDP=3.28D-08 MaxDP=2.15D-06 DE=-9.52D-10 OVMax= 4.69D-06

 Cycle  13  Pass 1  IDiag  1:
 RMSU=  1.11D-08    CP:  9.96D-01  6.85D-01  6.22D-01  2.76D-01  7.96D-01
                    CP:  7.12D-01  8.52D-01  7.59D-01  8.69D-01  5.89D-01
                    CP:  9.54D-01  7.63D-01
 E= -559.478627129920     Delta-E=       -0.000000000275 Rises=F Damp=F
 DIIS: error= 1.34D-07 at cycle  13 NSaved=  13.
 NSaved=13 IEnMin=13 EnMin= -559.478627129920     IErMin=13 ErrMin= 1.34D-07
 ErrMax= 1.34D-07  0.00D+00 EMaxC= 1.00D-01 BMatC= 2.21D-11 BMatP= 3.53D-10
 IDIUse=1 WtCom= 1.00D+00 WtEn= 0.00D+00
 Coeff-Com: -0.484D-05 0.913D-05-0.323D-04 0.962D-05-0.125D-04-0.509D-04
 Coeff-Com: -0.156D-02-0.220D-02-0.627D-02-0.667D-02 0.110D+00 0.258D+00
 Coeff-Com:  0.649D+00
 Coeff:     -0.484D-05 0.913D-05-0.323D-04 0.962D-05-0.125D-04-0.509D-04
 Coeff:     -0.156D-02-0.220D-02-0.627D-02-0.667D-02 0.110D+00 0.258D+00
 Coeff:      0.649D+00
 Gap=     0.169 Goal=   None    Shift=    0.000
 RMSDP=1.20D-08 MaxDP=1.02D-06 DE=-2.75D-10 OVMax= 8.53D-07

 Cycle  14  Pass 1  IDiag  1:
 RMSU=  4.49D-09    CP:  9.96D-01  6.85D-01  6.22D-01  2.76D-01  7.96D-01
                    CP:  7.12D-01  8.52D-01  7.59D-01  8.69D-01  5.88D-01
                    CP:  9.84D-01  8.03D-01  9.10D-01
 E= -559.478627129966     Delta-E=       -0.000000000045 Rises=F Damp=F
 DIIS: error= 4.75D-08 at cycle  14 NSaved=  14.
 NSaved=14 IEnMin=14 EnMin= -559.478627129966     IErMin=14 ErrMin= 4.75D-08
 ErrMax= 4.75D-08  0.00D+00 EMaxC= 1.00D-01 BMatC= 1.95D-12 BMatP= 2.21D-11
 IDIUse=1 WtCom= 1.00D+00 WtEn= 0.00D+00
 Coeff-Com: -0.135D-05 0.256D-05-0.241D-05 0.839D-06 0.906D-05-0.186D-06
 Coeff-Com: -0.335D-03-0.682D-03-0.414D-02-0.650D-02 0.486D-02 0.432D-01
 Coeff-Com:  0.338D+00 0.625D+00
 Coeff:     -0.135D-05 0.256D-05-0.241D-05 0.839D-06 0.906D-05-0.186D-06
 Coeff:     -0.335D-03-0.682D-03-0.414D-02-0.650D-02 0.486D-02 0.432D-01
 Coeff:      0.338D+00 0.625D+00
 Gap=     0.169 Goal=   None    Shift=    0.000
 RMSDP=1.86D-09 MaxDP=1.37D-07 DE=-4.55D-11 OVMax= 3.42D-07

 Error on total polarization charges =  0.01479
 SCF Done:  E(RB3LYP) =  -559.478627130     A.U. after   14 cycles
            NFock= 14  Conv=0.19D-08     -V/T= 2.0070
 KE= 5.556125519322D+02 PE=-2.870280773399D+03 EE= 9.698998208059D+02
 Leave Link  502 at Wed Jul 10 09:31:22 2024, MaxMem=  2684354560 cpu:           11736.8 elap:             983.1
 (Enter /mnt/data/applications/G16/g16/l601.exe)
 Copying SCF densities to generalized density rwf, IOpCl= 0 IROHF=0.

 **********************************************************************

            Population analysis using the SCF density.

 **********************************************************************

 Alpha  occ. eigenvalues --  -19.11491 -14.34789 -10.30297 -10.21454 -10.21355
 Alpha  occ. eigenvalues --  -10.19898 -10.19874 -10.18868 -10.18683 -10.18252
 Alpha  occ. eigenvalues --  -10.15500 -10.15447 -10.15249  -1.03123  -0.93160
 Alpha  occ. eigenvalues --   -0.84012  -0.81694  -0.77258  -0.72903  -0.69379
 Alpha  occ. eigenvalues --   -0.69255  -0.67280  -0.62471  -0.58950  -0.55140
 Alpha  occ. eigenvalues --   -0.51301  -0.49053  -0.48603  -0.48144  -0.46981
 Alpha  occ. eigenvalues --   -0.45955  -0.44486  -0.43447  -0.42529  -0.41719
 Alpha  occ. eigenvalues --   -0.40717  -0.39939  -0.38942  -0.37357  -0.36689
 Alpha  occ. eigenvalues --   -0.36114  -0.35158  -0.33817  -0.33042  -0.32903
 Alpha  occ. eigenvalues --   -0.27604  -0.26138  -0.25706  -0.23222
 Alpha virt. eigenvalues --   -0.06368  -0.00975   0.00890   0.03693   0.04615
 Alpha virt. eigenvalues --    0.06052   0.07140   0.07543   0.08470   0.08979
 Alpha virt. eigenvalues --    0.09196   0.09470   0.10302   0.10837   0.12020
 Alpha virt. eigenvalues --    0.12573   0.14313   0.15176   0.15244   0.16092
 Alpha virt. eigenvalues --    0.16431   0.17294   0.17578   0.17899   0.18306
 Alpha virt. eigenvalues --    0.18812   0.19927   0.20730   0.22214   0.22921
 Alpha virt. eigenvalues --    0.23982   0.24807   0.25551   0.26172   0.27924
 Alpha virt. eigenvalues --    0.28136   0.29862   0.30230   0.30363   0.31432
 Alpha virt. eigenvalues --    0.31790   0.32522   0.34057   0.34733   0.35219
 Alpha virt. eigenvalues --    0.37618   0.38564   0.39120   0.39304   0.39832
 Alpha virt. eigenvalues --    0.40247   0.41159   0.41782   0.42357   0.43143
 Alpha virt. eigenvalues --    0.43431   0.44238   0.44565   0.45133   0.45853
 Alpha virt. eigenvalues --    0.46168   0.46607   0.46763   0.47265   0.47582
 Alpha virt. eigenvalues --    0.48193   0.48424   0.48597   0.49226   0.50061
 Alpha virt. eigenvalues --    0.50299   0.50668   0.50928   0.51861   0.52566
 Alpha virt. eigenvalues --    0.53220   0.53655   0.54291   0.54754   0.55603
 Alpha virt. eigenvalues --    0.57574   0.57951   0.59237   0.60039   0.61234
 Alpha virt. eigenvalues --    0.62842   0.64105   0.65817   0.66073   0.70494
 Alpha virt. eigenvalues --    0.71017   0.71578   0.72452   0.73355   0.73740
 Alpha virt. eigenvalues --    0.75057   0.75310   0.76224   0.77448   0.78298
 Alpha virt. eigenvalues --    0.79041   0.80320   0.81180   0.82150   0.83577
 Alpha virt. eigenvalues --    0.85324   0.85892   0.87331   0.87627   0.88321
 Alpha virt. eigenvalues --    0.88992   0.90447   0.91479   0.91919   0.93160
 Alpha virt. eigenvalues --    0.93348   0.93874   0.95136   0.95772   0.96250
 Alpha virt. eigenvalues --    0.97298   0.97555   0.98341   0.99736   1.00501
 Alpha virt. eigenvalues --    1.01809   1.02781   1.03646   1.04735   1.05263
 Alpha virt. eigenvalues --    1.05605   1.06694   1.07519   1.07895   1.08877
 Alpha virt. eigenvalues --    1.09702   1.10918   1.11795   1.12560   1.13905
 Alpha virt. eigenvalues --    1.14877   1.16330   1.16554   1.16926   1.17620
 Alpha virt. eigenvalues --    1.18429   1.20040   1.20494   1.21384   1.21582
 Alpha virt. eigenvalues --    1.21836   1.22368   1.23741   1.25181   1.25836
 Alpha virt. eigenvalues --    1.26172   1.27441   1.28088   1.28567   1.29603
 Alpha virt. eigenvalues --    1.30226   1.30449   1.31472   1.31834   1.32555
 Alpha virt. eigenvalues --    1.33343   1.33710   1.34554   1.34814   1.36242
 Alpha virt. eigenvalues --    1.36405   1.38970   1.39693   1.39847   1.40347
 Alpha virt. eigenvalues --    1.41731   1.42413   1.43117   1.44833   1.45257
 Alpha virt. eigenvalues --    1.45967   1.47726   1.49030   1.50196   1.50837
 Alpha virt. eigenvalues --    1.52464   1.52537   1.53747   1.54510   1.54957
 Alpha virt. eigenvalues --    1.56005   1.56665   1.57550   1.58719   1.60369
 Alpha virt. eigenvalues --    1.60894   1.62508   1.63483   1.64498   1.66122
 Alpha virt. eigenvalues --    1.68407   1.69011   1.70635   1.71609   1.72047
 Alpha virt. eigenvalues --    1.72902   1.76745   1.78966   1.82049   1.84889
 Alpha virt. eigenvalues --    1.87730   1.90831   1.94304   2.03317   2.05317
 Alpha virt. eigenvalues --    2.10345   2.15739   2.17609   2.19801   2.22017
 Alpha virt. eigenvalues --    2.22919   2.24740   2.25440   2.26602   2.28016
 Alpha virt. eigenvalues --    2.29144   2.30481   2.32022   2.32839   2.34187
 Alpha virt. eigenvalues --    2.35367   2.36409   2.39845   2.40156   2.41342
 Alpha virt. eigenvalues --    2.42694   2.43804   2.45376   2.46606   2.47877
 Alpha virt. eigenvalues --    2.48745   2.49288   2.51246   2.51833   2.53243
 Alpha virt. eigenvalues --    2.54329   2.55039   2.56245   2.56663   2.57153
 Alpha virt. eigenvalues --    2.58912   2.59232   2.60217   2.60570   2.61144
 Alpha virt. eigenvalues --    2.63137   2.63558   2.64763   2.66165   2.67223
 Alpha virt. eigenvalues --    2.67972   2.69532   2.70482   2.71048   2.73272
 Alpha virt. eigenvalues --    2.74069   2.74825   2.76334   2.77150   2.77429
 Alpha virt. eigenvalues --    2.79525   2.80684   2.81153   2.82424   2.82852
 Alpha virt. eigenvalues --    2.82966   2.84270   2.85264   2.85373   2.85988
 Alpha virt. eigenvalues --    2.87153   2.87746   2.88603   2.89076   2.91410
 Alpha virt. eigenvalues --    2.92234   2.92754   2.93536   2.94556   2.96665
 Alpha virt. eigenvalues --    2.97250   2.98167   2.98694   2.99899   3.00775
 Alpha virt. eigenvalues --    3.01094   3.01647   3.01928   3.02629   3.03078
 Alpha virt. eigenvalues --    3.03334   3.04132   3.05349   3.05804   3.06532
 Alpha virt. eigenvalues --    3.07096   3.07633   3.08426   3.08933   3.10480
 Alpha virt. eigenvalues --    3.10794   3.11829   3.12340   3.12605   3.13649
 Alpha virt. eigenvalues --    3.14390   3.15999   3.16969   3.17170   3.17323
 Alpha virt. eigenvalues --    3.18443   3.19041   3.19883   3.20290   3.20659
 Alpha virt. eigenvalues --    3.21891   3.22309   3.22884   3.23712   3.24355
 Alpha virt. eigenvalues --    3.25805   3.26686   3.27800   3.29737   3.30990
 Alpha virt. eigenvalues --    3.31226   3.31827   3.32909   3.34200   3.35549
 Alpha virt. eigenvalues --    3.35945   3.36896   3.37093   3.38421   3.38604
 Alpha virt. eigenvalues --    3.39706   3.40664   3.41699   3.42830   3.43353
 Alpha virt. eigenvalues --    3.44095   3.45149   3.46700   3.47576   3.49683
 Alpha virt. eigenvalues --    3.49935   3.50204   3.50606   3.51581   3.53039
 Alpha virt. eigenvalues --    3.55014   3.55447   3.56450   3.57700   3.58742
 Alpha virt. eigenvalues --    3.59498   3.60838   3.62039   3.62095   3.62879
 Alpha virt. eigenvalues --    3.63902   3.64852   3.67227   3.68041   3.68532
 Alpha virt. eigenvalues --    3.69549   3.70774   3.70973   3.71580   3.71798
 Alpha virt. eigenvalues --    3.73045   3.73882   3.75515   3.76644   3.77321
 Alpha virt. eigenvalues --    3.77824   3.79076   3.80220   3.81474   3.82923
 Alpha virt. eigenvalues --    3.84076   3.85479   3.86107   3.86998   3.88081
 Alpha virt. eigenvalues --    3.89536   3.89752   3.91200   3.91484   3.93333
 Alpha virt. eigenvalues --    3.93992   3.94716   3.95868   3.97103   3.98447
 Alpha virt. eigenvalues --    3.99191   4.00307   4.00686   4.01988   4.02450
 Alpha virt. eigenvalues --    4.02727   4.03793   4.05280   4.06844   4.07148
 Alpha virt. eigenvalues --    4.07720   4.08877   4.09426   4.10532   4.11619
 Alpha virt. eigenvalues --    4.11962   4.12811   4.13421   4.14252   4.15245
 Alpha virt. eigenvalues --    4.16813   4.17701   4.18450   4.19256   4.19713
 Alpha virt. eigenvalues --    4.19965   4.21071   4.21760   4.22254   4.23680
 Alpha virt. eigenvalues --    4.24949   4.25167   4.27009   4.28216   4.29545
 Alpha virt. eigenvalues --    4.30158   4.31555   4.31941   4.33018   4.34307
 Alpha virt. eigenvalues --    4.34971   4.36020   4.36575   4.37738   4.38619
 Alpha virt. eigenvalues --    4.39316   4.41269   4.43801   4.44901   4.45620
 Alpha virt. eigenvalues --    4.50131   4.50568   4.51938   4.52386   4.55111
 Alpha virt. eigenvalues --    4.57006   4.58282   4.60762   4.62786   4.63403
 Alpha virt. eigenvalues --    4.65439   4.66792   4.67612   4.68989   4.69343
 Alpha virt. eigenvalues --    4.70759   4.74817   4.75834   4.79121   4.80501
 Alpha virt. eigenvalues --    4.82999   4.84216   4.85209   4.85885   4.87905
 Alpha virt. eigenvalues --    4.88432   4.89757   4.90795   4.92426   4.93064
 Alpha virt. eigenvalues --    4.95105   4.95886   4.97683   4.98953   5.00032
 Alpha virt. eigenvalues --    5.02697   5.03736   5.06248   5.07659   5.09597
 Alpha virt. eigenvalues --    5.11905   5.13696   5.16261   5.16623   5.18107
 Alpha virt. eigenvalues --    5.20251   5.20617   5.21293   5.22039   5.22433
 Alpha virt. eigenvalues --    5.23582   5.25320   5.27925   5.28336   5.28788
 Alpha virt. eigenvalues --    5.29716   5.30109   5.30834   5.31506   5.32253
 Alpha virt. eigenvalues --    5.34168   5.35446   5.37658   5.37756   5.38787
 Alpha virt. eigenvalues --    5.39797   5.40063   5.40691   5.42162   5.42493
 Alpha virt. eigenvalues --    5.44205   5.45651   5.47857   5.48758   5.49394
 Alpha virt. eigenvalues --    5.50008   5.52983   5.54004   5.54674   5.57526
 Alpha virt. eigenvalues --    5.58929   5.59770   5.62197   5.64141   5.69331
 Alpha virt. eigenvalues --    5.71632   5.73046   5.77173   5.77630   5.78835
 Alpha virt. eigenvalues --    5.89860   5.91411   5.92231   5.94477   5.94727
 Alpha virt. eigenvalues --    5.96170   5.97532   6.00771   6.01307   6.02951
 Alpha virt. eigenvalues --    6.04943   6.07392   6.11786   6.25101   6.36802
 Alpha virt. eigenvalues --    6.45162   6.58054   6.58702   6.82299   7.00977
 Alpha virt. eigenvalues --    7.04295   8.34873   9.97875  10.39272  11.77312
 Alpha virt. eigenvalues --   12.10039  12.67928  12.92565  12.96360  13.44588
 Alpha virt. eigenvalues --   13.47741  14.07945  14.20015  14.23933
          Condensed to atoms (all electrons):
               1          2          3          4          5          6
     1  C    5.047357   0.423494   0.388177   0.304867  -0.031208  -0.059426
     2  H    0.423494   0.541655  -0.036547  -0.037334  -0.007752   0.006372
     3  H    0.388177  -0.036547   0.691822  -0.051765   0.010191  -0.046134
     4  C    0.304867  -0.037334  -0.051765   4.913562   0.405449   0.451479
     5  H   -0.031208  -0.007752   0.010191   0.405449   0.578111  -0.040977
     6  H   -0.059426   0.006372  -0.046134   0.451479  -0.040977   0.611844
     7  C   -0.036710   0.003755   0.007464   0.316930  -0.024856  -0.040463
     8  H    0.007384  -0.000259  -0.001191  -0.029717  -0.004004  -0.005490
     9  H   -0.003060   0.000254  -0.000578  -0.030791  -0.008548   0.008225
    10  C   -0.064352   0.002503   0.002340   0.000076   0.000277   0.001532
    11  N    0.246917  -0.016503  -0.089414  -0.032026   0.001997   0.008984
    12  H   -0.041615  -0.000481  -0.032423   0.008109  -0.000541   0.000998
    13  O    0.002908  -0.000171  -0.000906  -0.000456   0.000015   0.000012
    14  C    0.014203  -0.001307   0.000912  -0.035496   0.007218  -0.004400
    15  C   -0.002843   0.000178  -0.000272  -0.000416  -0.000389   0.002558
    16  C   -0.000143   0.000002  -0.000060  -0.000077  -0.000008   0.000196
    17  H    0.000006   0.000000  -0.000006   0.000029  -0.000003  -0.000008
    18  C   -0.000004  -0.000000   0.000001  -0.000017   0.000001   0.000005
    19  C    0.000001  -0.000000  -0.000000   0.000001  -0.000000  -0.000000
    20  H   -0.000006   0.000000   0.000002  -0.000000   0.000000  -0.000001
    21  H    0.000000  -0.000000  -0.000000  -0.000000   0.000000   0.000000
    22  H   -0.000000   0.000000   0.000000  -0.000000   0.000000  -0.000000
    23  C    0.000000   0.000000  -0.000000   0.000000  -0.000000   0.000000
    24  H   -0.000000  -0.000000  -0.000000   0.000000  -0.000000  -0.000000
    25  H   -0.000000   0.000000   0.000000   0.000000  -0.000000   0.000000
    26  H    0.000000   0.000000  -0.000000  -0.000000  -0.000000  -0.000000
    27  C    0.000004  -0.000000   0.000001  -0.000001   0.000001  -0.000002
    28  H    0.000002  -0.000000  -0.000001   0.000007  -0.000003   0.000000
    29  H   -0.000026   0.000001  -0.000000   0.000010   0.000001   0.000004
    30  H   -0.000000  -0.000000   0.000000   0.000001  -0.000000  -0.000000
               7          8          9         10         11         12
     1  C   -0.036710   0.007384  -0.003060  -0.064352   0.246917  -0.041615
     2  H    0.003755  -0.000259   0.000254   0.002503  -0.016503  -0.000481
     3  H    0.007464  -0.001191  -0.000578   0.002340  -0.089414  -0.032423
     4  C    0.316930  -0.029717  -0.030791   0.000076  -0.032026   0.008109
     5  H   -0.024856  -0.004004  -0.008548   0.000277   0.001997  -0.000541
     6  H   -0.040463  -0.005490   0.008225   0.001532   0.008984   0.000998
     7  C    4.856714   0.413882   0.409787  -0.015643  -0.001389  -0.001643
     8  H    0.413882   0.573319  -0.028291   0.000302  -0.000522   0.000177
     9  H    0.409787  -0.028291   0.590252   0.001465  -0.000416   0.000010
    10  C   -0.015643   0.000302   0.001465   4.599172   0.458724  -0.017452
    11  N   -0.001389  -0.000522  -0.000416   0.458724   6.471056   0.393733
    12  H   -0.001643   0.000177   0.000010  -0.017452   0.393733   0.533931
    13  O    0.004119  -0.000224   0.000113   0.778077  -0.102391   0.004027
    14  C    0.321526  -0.042236  -0.055967   0.113614  -0.140665   0.010943
    15  C   -0.063310   0.005478   0.001795  -0.096621  -0.000442   0.000039
    16  C   -0.001285   0.002430   0.001619  -0.004430  -0.000084   0.000019
    17  H    0.000002   0.000152  -0.000094   0.000001   0.000012   0.000002
    18  C    0.000180  -0.000288   0.000201  -0.000560  -0.000005  -0.000000
    19  C   -0.000026   0.000019   0.000001  -0.000294  -0.000007   0.000001
    20  H   -0.000022  -0.000007  -0.000013   0.002228   0.000084  -0.000009
    21  H    0.000004  -0.000001  -0.000001  -0.000048  -0.000000   0.000000
    22  H    0.000002  -0.000001   0.000000   0.000010   0.000000  -0.000000
    23  C    0.000038  -0.000001  -0.000006  -0.000032  -0.000000   0.000000
    24  H   -0.000016   0.000030   0.000001  -0.000001  -0.000000   0.000000
    25  H   -0.000002  -0.000000   0.000001   0.000000  -0.000000  -0.000000
    26  H    0.000001  -0.000001  -0.000001  -0.000001   0.000000   0.000000
    27  C   -0.000208  -0.000156   0.000368  -0.001014  -0.000013  -0.000000
    28  H   -0.000010   0.000350   0.000125   0.000062  -0.000001   0.000000
    29  H    0.000064  -0.000120   0.000340   0.002038   0.000035  -0.000002
    30  H   -0.000024   0.000002   0.000000  -0.000006  -0.000000   0.000000
              13         14         15         16         17         18
     1  C    0.002908   0.014203  -0.002843  -0.000143   0.000006  -0.000004
     2  H   -0.000171  -0.001307   0.000178   0.000002   0.000000  -0.000000
     3  H   -0.000906   0.000912  -0.000272  -0.000060  -0.000006   0.000001
     4  C   -0.000456  -0.035496  -0.000416  -0.000077   0.000029  -0.000017
     5  H    0.000015   0.007218  -0.000389  -0.000008  -0.000003   0.000001
     6  H    0.000012  -0.004400   0.002558   0.000196  -0.000008   0.000005
     7  C    0.004119   0.321526  -0.063310  -0.001285   0.000002   0.000180
     8  H   -0.000224  -0.042236   0.005478   0.002430   0.000152  -0.000288
     9  H    0.000113  -0.055967   0.001795   0.001619  -0.000094   0.000201
    10  C    0.778077   0.113614  -0.096621  -0.004430   0.000001  -0.000560
    11  N   -0.102391  -0.140665  -0.000442  -0.000084   0.000012  -0.000005
    12  H    0.004027   0.010943   0.000039   0.000019   0.000002  -0.000000
    13  O    7.841462  -0.159894   0.006241  -0.001343   0.000092  -0.000426
    14  C   -0.159894   5.612540   0.458109  -0.066499   0.000105   0.001402
    15  C    0.006241   0.458109   5.168971   0.666723  -0.033285  -0.080490
    16  C   -0.001343  -0.066499   0.666723   5.013374   0.404400   0.354512
    17  H    0.000092   0.000105  -0.033285   0.404400   0.504931  -0.039971
    18  C   -0.000426   0.001402  -0.080490   0.354512  -0.039971   4.875726
    19  C   -0.001877   0.001197  -0.003788  -0.048783   0.000590   0.349183
    20  H    0.009108  -0.002461   0.004759  -0.005452   0.000041  -0.033419
    21  H   -0.000111  -0.000103  -0.000670  -0.000806   0.001529  -0.034377
    22  H    0.000050  -0.000066   0.000521   0.007862  -0.000324  -0.036104
    23  C   -0.000014  -0.000259   0.001365  -0.052711  -0.003612   0.345059
    24  H   -0.000001  -0.000094   0.000136   0.000710   0.000101  -0.036714
    25  H    0.000000   0.000022   0.000002   0.007583  -0.000224  -0.032999
    26  H   -0.000000   0.000009   0.000189  -0.006098   0.004347  -0.032334
    27  C   -0.000637  -0.001692  -0.017811  -0.049222   0.006236   0.346769
    28  H   -0.000012   0.000368   0.003852  -0.002655   0.000107  -0.035782
    29  H    0.002081  -0.003658  -0.000853  -0.007598  -0.000148  -0.028735
    30  H   -0.000007   0.000081   0.000893   0.007689  -0.000339  -0.032690
              19         20         21         22         23         24
     1  C    0.000001  -0.000006   0.000000  -0.000000   0.000000  -0.000000
     2  H   -0.000000   0.000000  -0.000000   0.000000   0.000000  -0.000000
     3  H   -0.000000   0.000002  -0.000000   0.000000  -0.000000  -0.000000
     4  C    0.000001  -0.000000  -0.000000  -0.000000   0.000000   0.000000
     5  H   -0.000000   0.000000   0.000000   0.000000  -0.000000  -0.000000
     6  H   -0.000000  -0.000001   0.000000  -0.000000   0.000000  -0.000000
     7  C   -0.000026  -0.000022   0.000004   0.000002   0.000038  -0.000016
     8  H    0.000019  -0.000007  -0.000001  -0.000001  -0.000001   0.000030
     9  H    0.000001  -0.000013  -0.000001   0.000000  -0.000006   0.000001
    10  C   -0.000294   0.002228  -0.000048   0.000010  -0.000032  -0.000001
    11  N   -0.000007   0.000084  -0.000000   0.000000  -0.000000  -0.000000
    12  H    0.000001  -0.000009   0.000000  -0.000000   0.000000   0.000000
    13  O   -0.001877   0.009108  -0.000111   0.000050  -0.000014  -0.000001
    14  C    0.001197  -0.002461  -0.000103  -0.000066  -0.000259  -0.000094
    15  C   -0.003788   0.004759  -0.000670   0.000521   0.001365   0.000136
    16  C   -0.048783  -0.005452  -0.000806   0.007862  -0.052711   0.000710
    17  H    0.000590   0.000041   0.001529  -0.000324  -0.003612   0.000101
    18  C    0.349183  -0.033419  -0.034377  -0.036104   0.345059  -0.036714
    19  C    4.928984   0.392352   0.401493   0.401633  -0.058265   0.008798
    20  H    0.392352   0.582168  -0.028919  -0.025996   0.007685  -0.000574
    21  H    0.401493  -0.028919   0.586545  -0.029249  -0.004723  -0.000254
    22  H    0.401633  -0.025996  -0.029249   0.586398  -0.005996  -0.000231
    23  C   -0.058265   0.007685  -0.004723  -0.005996   4.938972   0.402705
    24  H    0.008798  -0.000574  -0.000254  -0.000231   0.402705   0.583948
    25  H   -0.004007  -0.000069  -0.000427   0.002966   0.404861  -0.027410
    26  H   -0.006053  -0.000160   0.004458  -0.000173   0.405169  -0.030204
    27  C   -0.056254  -0.005188   0.008814  -0.006319  -0.054203  -0.006247
    28  H    0.008786  -0.000220  -0.000567  -0.000201  -0.006230   0.004703
    29  H   -0.006956   0.004847  -0.000142   0.000159   0.008485  -0.000219
    30  H   -0.003975  -0.000099  -0.000182   0.002601  -0.006457   0.000008
              25         26         27         28         29         30
     1  C   -0.000000   0.000000   0.000004   0.000002  -0.000026  -0.000000
     2  H    0.000000   0.000000  -0.000000  -0.000000   0.000001  -0.000000
     3  H    0.000000  -0.000000   0.000001  -0.000001  -0.000000   0.000000
     4  C    0.000000  -0.000000  -0.000001   0.000007   0.000010   0.000001
     5  H   -0.000000  -0.000000   0.000001  -0.000003   0.000001  -0.000000
     6  H    0.000000  -0.000000  -0.000002   0.000000   0.000004  -0.000000
     7  C   -0.000002   0.000001  -0.000208  -0.000010   0.000064  -0.000024
     8  H   -0.000000  -0.000001  -0.000156   0.000350  -0.000120   0.000002
     9  H    0.000001  -0.000001   0.000368   0.000125   0.000340   0.000000
    10  C    0.000000  -0.000001  -0.001014   0.000062   0.002038  -0.000006
    11  N   -0.000000   0.000000  -0.000013  -0.000001   0.000035  -0.000000
    12  H   -0.000000   0.000000  -0.000000   0.000000  -0.000002   0.000000
    13  O    0.000000  -0.000000  -0.000637  -0.000012   0.002081  -0.000007
    14  C    0.000022   0.000009  -0.001692   0.000368  -0.003658   0.000081
    15  C    0.000002   0.000189  -0.017811   0.003852  -0.000853   0.000893
    16  C    0.007583  -0.006098  -0.049222  -0.002655  -0.007598   0.007689
    17  H   -0.000224   0.004347   0.006236   0.000107  -0.000148  -0.000339
    18  C   -0.032999  -0.032334   0.346769  -0.035782  -0.028735  -0.032690
    19  C   -0.004007  -0.006053  -0.056254   0.008786  -0.006956  -0.003975
    20  H   -0.000069  -0.000160  -0.005188  -0.000220   0.004847  -0.000099
    21  H   -0.000427   0.004458   0.008814  -0.000567  -0.000142  -0.000182
    22  H    0.002966  -0.000173  -0.006319  -0.000201   0.000159   0.002601
    23  C    0.404861   0.405169  -0.054203  -0.006230   0.008485  -0.006457
    24  H   -0.027410  -0.030204  -0.006247   0.004703  -0.000219   0.000008
    25  H    0.579186  -0.029209  -0.006417  -0.000131  -0.000118   0.003692
    26  H   -0.029209   0.582209   0.008694  -0.000169  -0.000526  -0.000119
    27  C   -0.006417   0.008694   4.949885   0.402789   0.404684   0.403485
    28  H   -0.000131  -0.000169   0.402789   0.576652  -0.030257  -0.026748
    29  H   -0.000118  -0.000526   0.404684  -0.030257   0.582630  -0.030190
    30  H    0.003692  -0.000119   0.403485  -0.026748  -0.030190   0.581057
 Mulliken charges:
               1
     1  C   -0.195926
     2  H    0.122141
     3  H    0.158387
     4  C   -0.182423
     5  H    0.115027
     6  H    0.104691
     7  C   -0.148860
     8  H    0.108987
     9  H    0.113210
    10  C    0.238033
    11  N   -0.197665
    12  H    0.142176
    13  O   -0.379835
    14  C   -0.027451
    15  C   -0.020615
    16  C   -0.219865
    17  H    0.155330
    18  C    0.151877
    19  C   -0.302753
    20  H    0.099340
    21  H    0.097739
    22  H    0.102458
    23  C   -0.321832
    24  H    0.100823
    25  H    0.102699
    26  H    0.099971
    27  C   -0.326345
    28  H    0.105184
    29  H    0.104170
    30  H    0.101327
 Sum of Mulliken charges =  -0.00000
 Mulliken charges with hydrogens summed into heavy atoms:
               1
     1  C    0.084602
     4  C    0.037295
     7  C    0.073336
    10  C    0.238033
    11  N   -0.055489
    13  O   -0.379835
    14  C   -0.027451
    15  C   -0.020615
    16  C   -0.064534
    18  C    0.151877
    19  C   -0.003215
    23  C   -0.018339
    27  C   -0.015664
 Electronic spatial extent (au):  <R**2>=          53547.3962
 Charge=             -0.0000 electrons
 Dipole moment (field-independent basis, Debye):
    X=              3.8618    Y=              0.5718    Z=              3.8242  Tot=              5.4649
 Quadrupole moment (field-independent basis, Debye-Ang):
   XX=           -146.8089   YY=            -66.8210   ZZ=            -55.0296
   XY=              4.0284   XZ=            -25.3862   YZ=             19.2886
 Traceless Quadrupole moment (field-independent basis, Debye-Ang):
   XX=            -57.2557   YY=             22.7321   ZZ=             34.5236
   XY=              4.0284   XZ=            -25.3862   YZ=             19.2886
 Octapole moment (field-independent basis, Debye-Ang**2):
  XXX=           3221.1791  YYY=          -1212.1601  ZZZ=           -862.5823  XYY=            662.7073
  XXY=           -543.0128  XXZ=           -161.4503  XZZ=            564.6683  YZZ=           -322.0906
  YYZ=           -205.7938  XYZ=           -165.3157
 Hexadecapole moment (field-independent basis, Debye-Ang**3):
 XXXX=         -58317.8041 YYYY=         -15609.0845 ZZZZ=          -8345.5287 XXXY=          14921.9657
 XXXZ=           8830.8725 YYYX=          12304.3721 YYYZ=          -5117.6315 ZZZX=           8741.1210
 ZZZY=          -5282.2817 XXYY=          -9486.3348 XXZZ=          -7480.7126 YYZZ=          -3552.8745
[...]
 00000478,0.00050987,0.00006130,-0.00005616,-0.00142269,0.00117001,0.00
 033090,-0.00005178,-0.00010606,-0.00000417,-0.02097821,-0.00731919,-0.
 00295291,0.00069158,-0.00298082,-0.00358945,-0.00149973,-0.00005965,-0
 .00057848,0.00037779,0.00010221,0.00006291,-0.00016390,0.00027120,-0.0
 0008723,-0.06186676,-0.06336257,-0.00964816,0.07025883,0.06714184,0.00
 000098,0.00000111,-0.00000190,-0.00000017,0.,-0.00000055,-0.00000036,0
 .00000093,0.00000058,0.00000835,0.00000024,0.00000050,0.00000034,-0.00
 000090,-0.00000136,0.00000001,0.00000349,0.00000002,0.00000522,-0.0000
 5990,0.00006136,-0.00000577,0.00000258,0.00000217,-0.00001934,0.000000
 20,-0.00000815,0.00000114,0.00006321,-0.00007273,0.00000266,0.00000391
 ,0.00001177,-0.00000361,-0.00000618,0.00000547,-0.00000481,0.00000586,
 0.00001560,-0.00002283,-0.00001959,-0.00005280,0.00035680,-0.00001578,
 0.00003033,-0.00040107,0.00120606,0.00049877,0.00005337,-0.00011317,-0
 .00004856,-0.02310251,-0.00570711,-0.00486867,0.00053270,-0.00350004,-
 0.00361285,-0.00152966,-0.00072127,-0.00005217,-0.00012217,-0.00014456
 ,0.00024453,0.00038495,0.00010704,0.00004909,-0.03709122,-0.00938617,-
 0.05300808,0.04272916,0.01403561,0.05614067,0.00002314,0.00000259,-0.0
 0000366,-0.00000720,-0.00000380,0.00000007,-0.00000549,0.00000377,0.00
 000204,-0.00001696,-0.00002395,-0.00000022,-0.00001262,0.00001016,0.00
 000009,0.00000363,0.00000325,-0.00000069,0.00003414,0.00000916,0.00005
 727,0.00000128,-0.00000624,-0.00000838,-0.00003585,-0.00000207,-0.0000
 0989,-0.00003586,-0.00011143,-0.00014757,-0.00002090,0.00006222,0.0000
 5852,-0.00001066,-0.00000135,0.00000128,0.00001760,0.00006176,0.000069
 37,-0.00006280,0.00008875,0.00008783,0.00081689,-0.00014176,-0.0002073
 6,0.00039243,-0.00010743,0.00047122,-0.00012084,0.00006280,-0.00018201
 ,-0.00031642,-0.00192297,0.00032203,0.00058567,-0.00086495,0.00014226,
 0.00009613,0.00005140,0.00018301,-0.00002351,-0.00002707,0.00002550,0.
 00018882,-0.00003144,-0.00014084,-0.11741194,0.11018779,-0.03318023,-0
 .01466235,0.02521718,-0.00748814,0.12373049,-0.00009797,-0.00000988,0.
 00000186,0.00003082,0.00001440,0.00000435,0.00002274,-0.00001636,-0.00
 000830,0.00007117,0.00012035,0.00000813,0.00005347,-0.00004279,0.00000
 021,-0.00001812,-0.00001536,0.00000326,-0.00001990,0.00003265,-0.00038
 158,-0.00000949,-0.00001832,0.00001720,0.00019319,0.00002944,0.0000180
 3,0.00013802,0.00043399,0.00079255,0.00010098,-0.00025868,-0.00024922,
 0.00004333,0.00001485,-0.00001103,-0.00012911,-0.00024388,-0.00030114,
 0.00052119,-0.00009850,-0.00019485,-0.00068799,-0.00062846,0.00073800,
 0.00006466,-0.00235479,-0.00484630,-0.00004281,0.00038429,0.00016244,0
 .01106386,-0.01946966,0.00550355,0.00088025,0.00067223,0.00114400,-0.0
 0006956,0.00044471,-0.00007773,-0.00005609,-0.00003812,-0.00004346,-0.
 00077816,0.00020737,-0.00030443,0.10925182,-0.21831806,0.05219723,-0.0
 0414829,0.00807420,-0.00236730,-0.12165497,0.23928015,-0.00006884,-0.0
 0000889,-0.00000138,0.00002194,0.00000846,0.00000459,0.00001584,-0.000
 01066,-0.00000476,0.00000919,0.00006792,0.00000252,0.00002910,-0.00001
 833,0.00000400,-0.00001210,-0.00001284,0.00000175,0.00001122,0.0002089
 2,-0.00037693,-0.00000264,-0.00001937,0.00001009,0.00017569,0.00002927
 ,0.00001938,0.00014799,0.00016550,0.00073155,0.00007110,-0.00017732,-0
 .00019468,0.00003408,0.00002298,-0.00001860,-0.00012707,-0.00013254,-0
 .00021041,0.00032502,-0.00014283,-0.00018730,-0.00028752,-0.00059235,0
 .00078224,-0.00004447,-0.00281293,-0.00322942,0.00001043,-0.00010675,0
 .00014310,0.01228172,-0.02064475,0.00400645,0.00086732,0.00034455,0.00
 098260,0.00023445,0.00026604,0.00004378,-0.00011946,0.00003372,-0.0000
 4030,-0.00032421,0.00018851,-0.00001837,-0.03363051,0.05346860,-0.0619
 2520,-0.00195598,0.00359194,-0.00195190,0.03731120,-0.05510478,0.06624
 592,-0.00000060,0.00000046,0.00000116,0.00000041,0.00000011,-0.0000007
 6,0.00000002,0.00000021,0.00000014,0.00000847,0.00000311,0.00000220,0.
 00000129,-0.00000244,-0.00000051,-0.00000032,0.00000191,-0.00000007,-0
 .00000393,-0.00003328,0.00001588,0.00000268,-0.00000066,0.00000338,-0.
 00000348,0.00000010,-0.00000440,-0.00000004,0.00002121,-0.00001678,-0.
 00000038,-0.00000012,-0.00000086,-0.00000026,-0.00000215,0.00000128,-0
 .00000287,-0.00000274,-0.00000122,0.00002488,0.00000709,0.00000167,-0.
 00003939,0.00004674,-0.00009349,-0.00003182,-0.00031597,0.00033573,-0.
 00005374,0.00024883,0.00002578,-0.00113997,0.00108961,-0.00185624,0.00
 052965,0.00031911,-0.00075707,0.00004622,0.00014561,0.00009163,0.00012
 734,-0.00013089,-0.00007147,-0.00001554,0.00002430,-0.00003373,-0.0838
 4628,-0.03721364,0.08233556,-0.01049770,-0.01147979,0.02625007,0.00686
 636,0.00575469,-0.01506933,0.08676014,0.00002117,0.00000137,-0.0000005
 1,-0.00000674,-0.00000302,-0.00000104,-0.00000478,0.00000386,0.0000023
 4,-0.00002092,-0.00002946,-0.00000166,-0.00001307,0.00001103,0.0000002
 5,0.00000395,0.00000334,-0.00000086,-0.00000231,0.00001746,0.00007395,
 0.00000196,0.00000395,-0.00000116,-0.00003726,-0.00000925,0.00000028,-
 0.00004569,-0.00009604,-0.00016780,-0.00002012,0.00005609,0.00005738,-
 0.00001012,-0.00000208,0.00000273,0.00003734,0.00004231,0.00006795,-0.
 00010106,0.00002007,-0.00001618,-0.00011702,0.00006851,0.00003669,0.00
 041512,0.00132583,-0.00068528,-0.00003469,-0.00009705,0.00018725,0.008
 77987,0.00763204,-0.01882226,0.00084909,0.00088404,0.00013449,0.000238
 74,0.00003961,0.00018210,-0.00016101,-0.00004064,0.00013179,-0.0001205
 9,-0.00004821,0.00002495,-0.03787451,-0.08509891,0.08481429,-0.0023231
 6,-0.00373247,0.00632726,-0.01084488,-0.00954100,0.02151088,0.04150744
 ,0.09061879,-0.00001457,0.00000110,-0.00000574,0.00000425,0.00000170,0
 .00000193,0.00000359,-0.00000172,0.00000027,-0.00000746,0.00000408,0.0
 0000236,0.00000388,0.00000072,-0.00000008,-0.00000152,-0.00000188,0.00
 000066,-0.00001127,0.00004947,-0.00001930,0.00000672,-0.00000049,0.000
 00419,0.00001653,0.00000440,0.00000556,0.00001546,0.00008104,0.0001105
 9,0.00002283,-0.00003740,-0.00002965,0.00000414,0.00000421,-0.00000014
 ,-0.00001519,-0.00003175,-0.00002589,-0.00008474,-0.00011122,-0.000098
 84,-0.00007971,-0.00012464,0.00029248,-0.00039292,0.00131426,0.0006010
 9,0.00025421,-0.00069799,0.00033452,0.00899729,0.00995690,-0.02118487,
 0.00099171,0.00114014,0.00078194,-0.00000594,-0.00019565,0.00036177,-0
 .00072791,-0.00040905,0.00028630,-0.00004288,-0.00004496,-0.00003619,0
 .08160714,0.08292625,-0.23034599,-0.00160247,-0.00231781,0.00540133,0.
 00237500,0.00261712,-0.00613809,-0.09088487,-0.08961440,0.25321928,0.0
 0012333,-0.00001340,0.00003708,-0.00004331,-0.00001480,-0.00000854,-0.
 00002558,0.00001194,0.00000051,-0.00012268,-0.00012095,-0.00000738,-0.
 00005943,0.00004454,0.00000870,0.00002577,-0.00001062,-0.00000203,0.00
 018036,0.00012849,0.00011177,-0.00002056,0.00000512,-0.00004036,-0.000
 15277,-0.00008431,0.00005440,-0.00010682,-0.00088466,-0.00069882,-0.00
 019352,0.00028246,0.00028100,-0.00003697,0.00000180,-0.00001324,0.0001
 6882,0.00021137,0.00021269,-0.00026882,0.00076327,-0.00018111,0.000761
 21,0.00169400,-0.00201028,0.00600998,0.00610343,-0.01336873,-0.0012418
 4,0.00357994,-0.00141018,-0.09089769,-0.01438164,0.03224356,-0.0209983
 0,-0.01561131,0.02919783,0.00158951,0.00055792,0.00052806,-0.00605015,
 -0.00177114,-0.00034837,0.00124373,-0.00020748,0.00067431,0.00000741,0
 .00144257,0.00133016,0.00042040,-0.00013517,-0.00125555,-0.00007544,-0
 .00016714,0.00034603,0.00042172,-0.00033247,-0.00113169,0.55731626,-0.
 00004259,-0.00000259,0.00000107,0.00001356,0.00000591,0.00000301,0.000
 00672,-0.00000687,-0.00000598,0.00003765,0.00003511,0.00000064,0.00002
 333,-0.00001359,-0.00000537,-0.00000192,0.00000206,-0.00000339,-0.0002
 6086,-0.00003261,-0.00003684,0.00000082,-0.00000426,-0.00001911,-0.000
 00349,0.00009414,-0.00004349,0.00033123,0.00037276,0.00058761,0.000013
 05,-0.00011614,-0.00014883,0.00002275,0.00000575,-0.00001224,-0.000314
 47,-0.00001521,-0.00019978,-0.00021369,-0.00077382,0.00024324,-0.00040
 508,-0.00118525,0.00227635,-0.00850346,-0.01718213,0.02681466,0.002567
 00,-0.00348367,0.00128171,-0.01387764,-0.09044873,0.03115020,-0.007914
 31,-0.00493300,0.00809539,0.00013744,0.00001532,0.00063492,-0.00110926
 ,0.00002431,-0.00039110,0.00126347,0.00048286,-0.00037071,0.00845434,0
 .00827034,-0.01917765,0.00032636,0.00049065,0.00012262,0.00012630,0.00
 061284,-0.00051019,0.00025974,-0.00265609,-0.00501903,-0.01865992,0.55
 767517,-0.00004142,-0.00000620,0.00002088,0.00000476,0.00000472,0.0000
 0130,0.00000872,-0.00000902,-0.00000616,0.00001433,0.00006253,0.000004
 31,0.00002833,-0.00001808,-0.00000376,-0.00000660,-0.00000832,0.000000
 67,-0.00003215,0.00004606,-0.00018146,0.00000464,-0.00001632,0.0000158
 2,0.00010296,0.00004779,0.00000528,0.00063651,0.00048246,0.00062587,-0
 .00007730,-0.00016688,-0.00014989,0.00002819,-0.00000303,-0.00001017,-
 0.00052254,-0.00003158,-0.00032167,0.00021257,-0.00056331,-0.00061909,
 0.00018894,-0.00017283,0.00045733,0.00152480,0.01032808,-0.01249578,-0
 .00046262,0.00010281,0.00098234,0.03170380,0.03178677,-0.14463561,0.00
 415323,0.00042505,0.00182183,-0.00114437,-0.00042229,0.00055709,-0.002
 44931,-0.00102240,0.00110890,-0.00066559,-0.00023608,0.00016143,0.0113
 8087,0.00541319,-0.03222956,0.00039823,0.00125948,0.00126493,-0.000122
 39,0.00127927,0.00137607,-0.00030834,-0.00295927,-0.00266674,0.0368883
 7,0.03832398,0.49113212,0.00000019,0.00000049,-0.00000195,0.00000138,-
 0.00000074,-0.00000102,-0.00000097,0.00000145,0.00000133,0.00000932,0.
 00000397,-0.00000041,-0.00000189,-0.00000210,0.00000204,-0.00000390,0.
 00000024,0.00000081,0.00010868,-0.00000499,-0.00001242,0.00000082,-0.0
 0000806,0.00002353,0.00004502,-0.00004192,0.00001328,-0.00002125,-0.00
 004228,-0.00013442,0.00000668,0.00000210,0.00000664,-0.00000185,-0.000
 00788,0.00000510,0.00004636,0.00002265,0.00003528,0.00012185,0.0002542
 3,-0.00028010,-0.00012015,0.00017930,0.00001710,0.00042808,0.00066417,
 -0.00037513,0.00011920,-0.00002985,0.00020528,-0.01304661,-0.00270706,
 -0.00221699,0.00031216,-0.00121196,0.00360466,0.00018732,0.00004888,-0
 .00015886,-0.00093791,-0.00042713,-0.00002257,0.00040055,0.00012361,-0
 .00009264,0.00034047,0.00000399,-0.00103397,0.00037717,0.00040206,0.00
 050496,-0.00002957,-0.00002502,0.00001582,0.00033370,-0.00000032,0.000
 12022,-0.28447961,-0.06274029,-0.03522038,0.31088380,0.00003169,-0.000
 00010,0.00000081,-0.00001034,-0.00000526,-0.00000228,-0.00000700,0.000
 00692,0.00000352,-0.00002355,-0.00003110,-0.00001403,-0.00002174,0.000
 01270,0.00000422,0.00000178,0.00000507,-0.00000032,0.00006597,0.000042
 32,0.00000210,-0.00001569,-0.00000108,-0.00000495,0.00000152,-0.000018
 08,-0.00000714,-0.00009468,-0.00030539,-0.00030540,-0.00003136,0.00008
 856,0.00007857,-0.00000946,-0.00000529,0.00000037,0.00013837,0.0001114
 2,0.00012306,0.00012595,0.00020739,-0.00006886,-0.00011366,-0.00056917
 ,0.00031981,-0.00050538,0.00047383,-0.00048795,0.00005810,0.00013763,0
 .00002326,-0.01213556,-0.00471981,-0.00258737,-0.00030040,-0.00083650,
 0.00261018,0.00036229,0.00017664,0.00011584,-0.00099167,0.00024272,0.0
 0011176,-0.00024142,0.00021351,-0.00009495,0.00060255,0.00015695,-0.00
 061342,0.00018668,0.00030273,0.00007762,0.00006030,-0.00000126,0.00003
 488,0.00011520,-0.00012238,0.00003927,-0.06165269,-0.06298546,-0.00915
 938,0.06975249,0.06478948,0.00000452,-0.00000262,0.00000424,0.00000130
 ,0.00000006,-0.00000193,0.00000040,0.00000067,-0.00000100,0.00000058,-
 0.00000017,-0.00000583,-0.00000104,-0.00000133,0.00000192,-0.00000081,
 -0.00000103,0.00000071,0.00005082,-0.00000521,0.00001490,0.00000066,-0
 .00000086,-0.00000244,0.00000854,-0.00002049,0.00000984,-0.00008769,-0
 .00005742,-0.00011808,0.00000876,0.00001477,0.00001264,-0.00000377,-0.
 00000367,0.00000385,0.00008268,-0.00000155,0.00002330,-0.00003948,0.00
 027275,-0.00007859,-0.00045893,0.00037690,0.00017476,0.00020239,-0.000
 90416,0.00112151,-0.00002831,-0.00028196,-0.00005991,0.02728932,0.0063
 9190,0.00350365,0.00144013,0.00201393,-0.00462951,-0.00004449,0.000196
 66,0.00010428,0.00169219,0.00061817,0.00025231,-0.00012855,-0.00017913
 ,-0.00006632,0.00070393,0.00045184,0.00160194,-0.00036598,-0.00019548,
 -0.00028579,-0.00002197,-0.00005705,-0.00008865,-0.00025434,0.00011058
 ,0.00028592,-0.03734755,-0.01000588,-0.05267589,0.03776639,0.00861902,
 0.05612983,-0.00002585,0.00000698,-0.00001614,0.00000978,0.00000179,0.
 00000526,0.00000561,-0.00000419,0.00000205,0.00001620,0.00001950,0.000
 01322,0.00001370,-0.00000831,-0.00000265,-0.00000393,-0.00000060,0.000
 00071,-0.00004727,-0.00001359,-0.00002112,0.00001729,-0.00000314,0.000
 01342,0.00002323,0.00001536,-0.00000490,-0.00003788,0.00022953,0.00014
 752,0.00004983,-0.00005708,-0.00007029,0.00000814,0.00000667,0.0000035
 8,0.00015841,-0.00055233,0.00003896,-0.00005540,-0.00021516,0.00012945
 ,0.00032618,0.00006382,-0.00043753,0.00008924,0.00025616,-0.00069556,-
 0.00010737,-0.00001178,-0.00003602,-0.00106881,0.00913869,0.00939352,0
 .00070198,0.00096400,0.00045831,-0.00016299,-0.00028278,-0.00001285,0.
 00015994,-0.00000250,-0.00020801,-0.00005048,0.00000799,0.00001239,-0.
 00086500,-0.00122016,0.00192960,0.00027135,0.00014793,0.00019386,0.000
 00961,-0.00028421,-0.00019668,0.00050368,0.00036487,0.00075919,-0.0478
 9546,-0.00951528,-0.01035676,-0.00050675,-0.02080730,-0.02304416,0.047
 77263,0.00003681,0.00000129,0.00003044,-0.00002445,-0.00000926,-0.0000
 0540,-0.00001054,0.00000273,-0.00000270,0.00000211,-0.00000792,0.00000
 472,-0.00000583,0.00000085,-0.00000476,0.00000358,0.00000596,-0.000001
 02,-0.00004055,-0.00004422,0.00004192,-0.00000173,0.00000102,-0.000002
 13,-0.00003290,0.00000387,-0.00001652,0.00042567,0.00003700,0.00016440
 ,-0.00016109,0.00007715,0.00002194,-0.00000294,-0.00000737,-0.00001166
 ,-0.00076226,-0.00159274,-0.00002613,0.00003038,-0.00015616,0.00018941
 ,0.00062070,-0.00034023,-0.00031477,0.00004656,0.00089417,0.00006901,-
 0.00010404,0.00018927,-0.00015918,0.00087710,0.00805603,0.00988758,0.0
 0039543,0.00051001,0.00026593,0.00012016,0.00004641,-0.00005779,0.0002
 3141,0.00012497,-0.00001615,-0.00005647,-0.00005871,-0.00004931,-0.000
 68242,-0.00021900,0.00181732,0.00000932,-0.00010935,0.00006354,-0.0001
 6917,0.00017269,0.00015243,-0.00010428,0.00058788,0.00047966,-0.009297
 31,-0.16395643,-0.13054131,-0.00022849,-0.00534535,-0.00478240,0.01120
 002,0.17771346,-0.00004356,0.00000301,-0.00002255,0.00001840,0.0000061
 5,0.00000363,0.00001006,-0.00000353,0.00000109,0.00001870,0.00002669,0
 .00001045,0.00001497,-0.00000811,-0.00000242,-0.00000634,0.00000070,0.
 00000091,-0.00004022,-0.00001753,-0.00000432,0.00001779,0.00000212,0.0
 0000884,0.00001892,0.00000969,-0.00001042,-0.00024877,0.00019310,0.000
 13444,0.00012097,-0.00006841,-0.00006934,0.00000535,0.00000862,0.00000
 538,0.00020927,-0.00040083,0.00017272,-0.00021890,-0.00019146,0.000236
 49,-0.00012267,0.00011211,-0.00030623,0.00011660,-0.00113171,0.0010562
 2,0.00021418,0.00011643,0.00014847,-0.00189013,-0.01916868,-0.02128603
 ,-0.00127066,-0.00078374,0.00083877,0.00063189,0.00043437,0.00044663,-
 0.00018174,0.00031593,0.00020234,0.00004059,0.00006103,-0.00000816,0.0
 0264562,0.00398702,-0.00409035,-0.00008627,0.00018376,0.00031770,0.000
 09663,-0.00004223,0.00032699,0.00012485,-0.00122753,-0.00152301,-0.009
 71775,-0.12777108,-0.18931389,-0.00053990,-0.00234777,-0.00318917,0.00
 879385,0.14168042,0.20844799,0.00002645,-0.00000162,0.00000206,-0.0000
 0867,-0.00000426,-0.00000170,-0.00000606,0.00000478,0.00000236,-0.0000
 1772,-0.00002643,-0.00000958,-0.00001662,0.00001010,0.00000390,0.00000
 223,0.00000174,-0.00000002,0.00007416,0.00002878,0.00000657,-0.0000090
 3,-0.00000282,0.00000091,0.00000101,-0.00002197,0.00000205,-0.00004986
 ,-0.00021626,-0.00024100,-0.00002882,0.00006578,0.00006600,-0.00000853
 ,-0.00000465,0.00000010,0.00007183,0.00005136,0.00008415,0.00018431,0.
 00019109,-0.00021449,-0.00034081,0.00025824,0.00012280,-0.00048095,-0.
 00116743,0.00227234,0.00051883,-0.00040888,0.00033952,0.00511609,-0.01
 102701,0.00346827,0.00093553,-0.00070672,0.00012396,-0.00006033,-0.000
 01596,-0.00002425,0.00023818,0.00010801,-0.00015018,-0.00007910,0.0000
 6222,0.00018065,0.00026015,-0.00015413,-0.00032617,-0.00002564,0.00008
 976,0.00002267,0.00008224,-0.00000135,-0.00006933,0.00000976,-0.000148
 82,-0.00017902,-0.11559956,0.10997848,-0.03586949,-0.01457229,0.025458
 98,-0.00742557,0.00069041,-0.00231477,0.00126826,0.12309284,-0.0000660
 0,-0.00000258,-0.00000605,0.00002172,0.00000971,0.00000307,0.00001543,
 -0.00000938,-0.00000355,0.00005242,0.00007401,0.00001131,0.00003496,-0
 .00002589,-0.00000289,-0.00001193,-0.00000459,0.00000262,-0.00002771,-
 0.00006404,-0.00009517,0.00000558,-0.00000260,0.00001659,0.00007648,0.
 00001714,0.00000278,0.00004000,0.00038868,0.00041256,0.00008942,-0.000
 16528,-0.00015101,0.00002248,0.00000540,-0.00000095,-0.00004511,-0.000
 17941,-0.00015878,-0.00002595,-0.00016776,-0.00019220,-0.00057911,0.00
 024263,0.00047148,-0.00142887,0.00001402,0.00212959,0.00052743,-0.0004
 9117,0.00038580,0.00644623,-0.01168056,0.00274509,0.00091170,0.0001525
 9,-0.00049391,-0.00002095,-0.00003166,0.00002964,-0.00014868,0.0003090
 2,-0.00007864,-0.00066052,0.00014697,-0.00000745,0.00010768,0.00042542
 ,-0.00099524,-0.00004869,0.00003053,0.00002068,-0.00003396,0.00056096,
 0.00019992,-0.00025951,0.00016041,-0.00001235,0.10851815,-0.22029139,0
 .05577411,-0.00398155,0.00797835,-0.00256686,0.01055511,-0.01657802,0.
 00602146,-0.12008624,0.23917848,0.00002648,0.00000437,-0.00000776,-0.0
 0000671,-0.00000429,0.00000037,-0.00000608,0.00000460,0.00000311,-0.00
 002799,-0.00003709,-0.00000150,-0.00001771,0.00001531,0.00000027,0.000
 00497,0.00000569,-0.00000156,-0.00003756,0.00004986,0.00006484,0.00000
 963,0.00000089,-0.00000959,-0.00005051,0.00000946,-0.00002051,-0.00013
 891,-0.00017780,-0.00014817,-0.00000211,0.00008291,0.00006484,-0.00001
 315,0.00000456,-0.00000086,0.00010022,0.00006944,0.00010261,-0.0002399
 3,-0.00004761,0.00044240,0.00097961,-0.00056507,-0.00055894,0.00261529
 ,0.00176142,-0.00428356,-0.00061068,0.00144097,-0.00030203,-0.01469462
 ,0.02273494,-0.00866192,-0.00121552,-0.00029586,0.00085276,0.00013010,
 -0.00004468,0.00000304,-0.00010786,-0.00035772,0.00001107,0.00058750,-
 0.00017036,0.00017749,-0.00093077,0.00087093,0.00121464,0.00002464,-0.
 00006551,-0.00007931,0.00031001,-0.00049778,-0.00029505,0.00016414,-0.
 00016721,0.00038433,-0.03437287,0.05418524,-0.06422650,-0.00223166,0.0
 0352953,-0.00204249,0.01320781,-0.01887749,0.00746683,0.03654422,-0.06
 346163,0.06985113\\-0.00000653,-0.00000254,0.00000130,-0.00000188,-0.0
 0000835,0.00000564,-0.00000516,0.00000512,-0.00000397,0.00002122,-0.00
 000658,0.00001305,-0.00000340,0.00000075,-0.00000117,0.00000082,0.0000
 0604,-0.00000471,-0.00001699,0.00000289,-0.00001379,0.00000390,-0.0000
 0049,0.00000137,0.00000473,-0.00000444,0.00000411,-0.00001066,0.000000
 35,0.00000871,0.00001638,-0.00001325,-0.00002398,0.00000567,-0.0000080
 5,0.00000687,-0.00002352,-0.00000361,-0.00000669,0.00002712,0.00000814
 ,0.00001626,-0.00000795,0.00000118,-0.00001379,-0.00001010,0.00000189,
 0.00002040,-0.00000153,0.00000301,-0.00000167,0.00000380,0.00000385,0.
 00000020,-0.00000495,0.00000047,-0.00000024,0.00000102,0.00000241,0.00
 000287,0.00000227,0.00000352,-0.00000110,0.00000184,-0.00000202,0.0000
 0079,0.00000028,0.00000352,0.00000058,-0.00000163,0.00000042,-0.000002
 82,0.00000209,0.00000010,-0.00000090,0.00000285,0.00000348,-0.00000376
 ,0.00000211,0.00000276,-0.00000486,-0.00000336,-0.00000091,-0.00000202
 ,-0.00000030,0.00000275,0.00000355,0.00000185,-0.00000243,-0.00000024\
 \\@


 I SUPPOSE A BABY LLAMA HAS A MMAMA AND A PPOPA.
     -- RICHARD AMOUR
 Job cpu time:       1 days  3 hours 53 minutes 32.5 seconds.
 Elapsed time:       0 days  2 hours 19 minutes 53.2 seconds.
 File lengths (MBytes):  RWF=    871 Int=      0 D2E=      0 Chk=     42 Scr=      1
 Normal termination of Gaussian 16 at Wed Jul 10 16:41:38 2024.
