 Entering Gaussian System, Link 0=g16
 Initial command:
 /mnt/data/applications/G16/g16/l1.exe "/scratch/Gau-3683.inp" -scrdir="/scratch/"
 Entering Link 1 = /mnt/data/applications/G16/g16/l1.exe PID=      3684.
  
 Copyright (c) 1988,1990,1992,1993,1995,1998,2003,2009,2016,
            Gaussian, Inc.  All Rights Reserved.
  
 This is part of the Gaussian(R) 16 program.  It is based on
 the Gaussian(R) 09 system (copyright 2009, Gaussian, Inc.),
 the Gaussian(R) 03 system (copyright 2003, Gaussian, Inc.),
 the Gaussian(R) 98 system (copyright 1998, Gaussian, Inc.),
 the Gaussian(R) 94 system (copyright 1995, Gaussian, Inc.),
 the Gaussian 92(TM) system (copyright 1992, Gaussian, Inc.),
 the Gaussian 90(TM) system (copyright 1990, Gaussian, Inc.),
 the Gaussian 88(TM) system (copyright 1988, Gaussian, Inc.),
 the Gaussian 86(TM) system (copyright 1986, Carnegie Mellon
 University), and the Gaussian 82(TM) system (copyright 1983,
 Carnegie Mellon University). Gaussian is a federally registered
 trademark of Gaussian, Inc.
  
 This software contains proprietary and confidential information,
 including trade secrets, belonging to Gaussian, Inc.
  
 This software is provided under written license and may be
 used, copied, transmitted, or stored only in accord with that
 written license.
  
 The following legend is applicable only to US Government
 contracts under FAR:
  
                    RESTRICTED RIGHTS LEGEND
  
 Use, reproduction and disclosure by the US Government is
 subject to restrictions as set forth in subparagraphs (a)
 and (c) of the Commercial Computer Software - Restricted
 Rights clause in FAR 52.227-19.
  
 Gaussian, Inc.
 340 Quinnipiac St., Bldg. 40, Wallingford CT 06492
  
  
 ---------------------------------------------------------------
 Warning -- This program may not be used in any manner that
 competes with the business of Gaussian, Inc. or will provide
 assistance to any competitor of Gaussian, Inc.  The licensee
 of this program is prohibited from giving any competitor of
 Gaussian, Inc. access to this program.  By using this program,
 the user acknowledges that Gaussian, Inc. is engaged in the
 business of creating and licensing software in the field of
 computational chemistry and represents and warrants to the
 licensee that it is not a competitor of Gaussian, Inc. and that
 it will not use this program in any manner prohibited above.
 ---------------------------------------------------------------
  

 Cite this work as:
 Gaussian 16, Revision A.03,
 M. J. Frisch, G. W. Trucks, H. B. Schlegel, G. E. Scuseria, 
 M. A. Robb, J. R. Cheeseman, G. Scalmani, V. Barone, 
 G. A. Petersson, H. Nakatsuji, X. Li, M. Caricato, A. V. Marenich, 
 J. Bloino, B. G. Janesko, R. Gomperts, B. Mennucci, H. P. Hratchian, 
 J. V. Ortiz, A. F. Izmaylov, J. L. Sonnenberg, D. Williams-Young, 
 F. Ding, F. Lipparini, F. Egidi, J. Goings, B. Peng, A. Petrone, 
 T. Henderson, D. Ranasinghe, V. G. Zakrzewski, J. Gao, N. Rega, 
 G. Zheng, W. Liang, M. Hada, M. Ehara, K. Toyota, R. Fukuda, 
 J. Hasegawa, M. Ishida, T. Nakajima, Y. Honda, O. Kitao, H. Nakai, 
 T. Vreven, K. Throssell, J. A. Montgomery, Jr., J. E. Peralta, 
 F. Ogliaro, M. J. Bearpark, J. J. Heyd, E. N. Brothers, K. N. Kudin, 
 V. N. Staroverov, T. A. Keith, R. Kobayashi, J. Normand, 
 K. Raghavachari, A. P. Rendell, J. C. Burant, S. S. Iyengar, 
 J. Tomasi, M. Cossi, J. M. Millam, M. Klene, C. Adamo, R. Cammi, 
 J. W. Ochterski, R. L. Martin, K. Morokuma, O. Farkas, 
 J. B. Foresman, and D. J. Fox, Gaussian, Inc., Wallingford CT, 2016.
 
 ******************************************
 Gaussian 16:  AM64L-G16RevA.03 25-Dec-2016
                10-Jul-2024 
 ******************************************
 %nproc=12
 Will use up to   12 processors via shared memory.
 %mem=20GB
 %chk=a-ent.chk
 ----------------------------------------------------------------------
 #p opt freq b3lyp/gen pseudo=read EmpiricalDispersion=GD3BJ pop=(orbit
 als=20) optcyc=300 nosymm scrf=(pcm,solvent=acetonitrile)
 ----------------------------------------------------------------------
 1/6=300,18=20,19=15,26=3,38=1/1,3;
 2/9=110,12=2,15=1,17=6,18=5,40=1/2;
 3/5=7,11=2,16=1,17=8,25=1,30=1,70=2201,71=1,72=2,74=-5,124=41/1,2,3;
 4//1;
 5/5=2,38=5,53=2/2;
 6/7=2,8=2,9=2,10=2,28=1,96=20/1;
 7/30=1/1,2,3,16;
 1/6=300,18=20,19=15,26=3/3(2);
 2/9=110,15=1/2;
 99//99;
 2/9=110,15=1/2;
 3/5=7,6=1,11=2,16=1,17=8,25=1,30=1,70=2205,71=1,72=2,74=-5,82=7,124=41/1,2,3;
 4/5=5,16=3,69=1/1;
 5/5=2,38=5,53=2/2;
 7/30=1/1,2,3,16;
 1/6=300,18=20,19=15,26=3/3(-5);
 2/9=110,15=1/2;
 6/7=2,8=2,9=2,10=2,19=2,28=1,96=20/1;
 99/9=1/99;
 Leave Link    1 at Wed Jul 10 10:38:33 2024, MaxMem=  2684354560 cpu:               1.1 elap:               0.1
 (Enter /mnt/data/applications/G16/g16/l101.exe)
 -------------------
 Title Card Required
 -------------------
 Symbolic Z-matrix:
 Charge =  0 Multiplicity = 1
 C                    -6.87729   3.5121    2.77972 
 H                    -6.10533   2.90106   2.36065 
 H                    -7.09515   2.80709   3.55458 
 C                    -6.48832   4.40004   3.98349 
 H                    -5.5337    4.85575   3.82243 
 H                    -6.44675   3.7604    4.84023 
 C                    -7.49251   5.5448    4.20497 
 H                    -7.3048    5.97501   5.16653 
 H                    -7.35351   6.28249   3.44248 
 C                    -9.29091   4.01865   3.04219 
 N                    -8.27181   3.14835   2.42646 
 H                    -8.41317   2.22158   2.77454 
 O                    -10.49155   3.89244   2.68715 
 C                    -8.93897   5.07626   4.09465 
 C                    -9.90327   5.62331   4.87415 
 C                    -10.86801   6.16984   5.65322 
 H                    -11.42406   7.01424   5.30284 
 C                    -11.16411   5.57572   7.04281 
 C                    -10.28084   6.26944   8.09649 
 H                    -9.24989   6.11529   7.85506 
 H                    -10.49233   7.31831   8.10452 
 H                    -10.48662   5.8567    9.062 
 C                    -12.64792   5.79748   7.39031 
 H                    -13.26159   5.31546   6.6582 
 H                    -12.85367   5.38471   8.35582 
 H                    -12.85946   6.84632   7.39835 
 C                    -10.85967   4.06614   7.03124 
 H                    -11.47337   3.58412   6.29914 
 H                    -9.82872   3.91203   6.78978 
 H                    -11.06542   3.65341   7.99674 
 
 ITRead=  0  0  0  0  0  0  0  0  0  0  0  0  0  0  0  0  0  0  0  0
 ITRead=  0  0  0  0  0  0  0  0  0  0
 MicOpt= -1 -1 -1 -1 -1 -1 -1 -1 -1 -1 -1 -1 -1 -1 -1 -1 -1 -1 -1 -1
 MicOpt= -1 -1 -1 -1 -1 -1 -1 -1 -1 -1
 NAtoms=     30 NQM=       30 NQMF=       0 NMMI=      0 NMMIF=      0
                NMic=       0 NMicF=      0.
                    Isotopes and Nuclear Properties:
 (Nuclear quadrupole moments (NQMom) in fm**2, nuclear magnetic moments (NMagM)
  in nuclear magnetons)

  Atom         1           2           3           4           5           6           7           8           9          10
 IAtWgt=          12           1           1          12           1           1          12           1           1          12
 AtmWgt=  12.0000000   1.0078250   1.0078250  12.0000000   1.0078250   1.0078250  12.0000000   1.0078250   1.0078250  12.0000000
 NucSpn=           0           1           1           0           1           1           0           1           1           0
 AtZEff=  -0.0000000  -0.0000000  -0.0000000  -0.0000000  -0.0000000  -0.0000000  -0.0000000  -0.0000000  -0.0000000  -0.0000000
 NQMom=    0.0000000   0.0000000   0.0000000   0.0000000   0.0000000   0.0000000   0.0000000   0.0000000   0.0000000   0.0000000
 NMagM=    0.0000000   2.7928460   2.7928460   0.0000000   2.7928460   2.7928460   0.0000000   2.7928460   2.7928460   0.0000000
 AtZNuc=   6.0000000   1.0000000   1.0000000   6.0000000   1.0000000   1.0000000   6.0000000   1.0000000   1.0000000   6.0000000

  Atom        11          12          13          14          15          16          17          18          19          20
 IAtWgt=          14           1          16          12          12          12           1          12          12           1
 AtmWgt=  14.0030740   1.0078250  15.9949146  12.0000000  12.0000000  12.0000000   1.0078250  12.0000000  12.0000000   1.0078250
 NucSpn=           2           1           0           0           0           0           1           0           0           1
 AtZEff=  -0.0000000  -0.0000000  -0.0000000  -0.0000000  -0.0000000  -0.0000000  -0.0000000  -0.0000000  -0.0000000  -0.0000000
 NQMom=    2.0440000   0.0000000   0.0000000   0.0000000   0.0000000   0.0000000   0.0000000   0.0000000   0.0000000   0.0000000
 NMagM=    0.4037610   2.7928460   0.0000000   0.0000000   0.0000000   0.0000000   2.7928460   0.0000000   0.0000000   2.7928460
 AtZNuc=   7.0000000   1.0000000   8.0000000   6.0000000   6.0000000   6.0000000   1.0000000   6.0000000   6.0000000   1.0000000

  Atom        21          22          23          24          25          26          27          28          29          30
 IAtWgt=           1           1          12           1           1           1          12           1           1           1
 AtmWgt=   1.0078250   1.0078250  12.0000000   1.0078250   1.0078250   1.0078250  12.0000000   1.0078250   1.0078250   1.0078250
 NucSpn=           1           1           0           1           1           1           0           1           1           1
 AtZEff=  -0.0000000  -0.0000000  -0.0000000  -0.0000000  -0.0000000  -0.0000000  -0.0000000  -0.0000000  -0.0000000  -0.0000000
 NQMom=    0.0000000   0.0000000   0.0000000   0.0000000   0.0000000   0.0000000   0.0000000   0.0000000   0.0000000   0.0000000
 NMagM=    2.7928460   2.7928460   0.0000000   2.7928460   2.7928460   2.7928460   0.0000000   2.7928460   2.7928460   2.7928460
 AtZNuc=   1.0000000   1.0000000   6.0000000   1.0000000   1.0000000   1.0000000   6.0000000   1.0000000   1.0000000   1.0000000
 Leave Link  101 at Wed Jul 10 10:38:34 2024, MaxMem=  2684354560 cpu:               5.3 elap:               0.5
 (Enter /mnt/data/applications/G16/g16/l103.exe)

 GradGradGradGradGradGradGradGradGradGradGradGradGradGradGradGradGradGrad
 Berny optimization.
 Initialization pass.
                           ----------------------------
                           !    Initial Parameters    !
                           ! (Angstroms and Degrees)  !
 --------------------------                            --------------------------
 ! Name  Definition              Value          Derivative Info.                !
 --------------------------------------------------------------------------------
 ! R1    R(1,2)                  1.07           estimate D2E/DX2                !
 ! R2    R(1,3)                  1.07           estimate D2E/DX2                !
 ! R3    R(1,4)                  1.5456         estimate D2E/DX2                !
 ! R4    R(1,11)                 1.4838         estimate D2E/DX2                !
 ! R5    R(4,5)                  1.07           estimate D2E/DX2                !
 ! R6    R(4,6)                  1.07           estimate D2E/DX2                !
 ! R7    R(4,7)                  1.5388         estimate D2E/DX2                !
 ! R8    R(7,8)                  1.07           estimate D2E/DX2                !
 ! R9    R(7,9)                  1.07           estimate D2E/DX2                !
 ! R10   R(7,14)                 1.5245         estimate D2E/DX2                !
 ! R11   R(10,11)                1.4748         estimate D2E/DX2                !
 ! R12   R(10,13)                1.2584         estimate D2E/DX2                !
 ! R13   R(10,14)                1.533          estimate D2E/DX2                !
 ! R14   R(11,12)                1.0            estimate D2E/DX2                !
 ! R15   R(14,15)                1.3553         estimate D2E/DX2                !
 ! R16   R(15,16)                1.3551         estimate D2E/DX2                !
 ! R17   R(16,17)                1.07           estimate D2E/DX2                !
 ! R18   R(16,18)                1.54           estimate D2E/DX2                !
 ! R19   R(18,19)                1.54           estimate D2E/DX2                !
 ! R20   R(18,23)                1.54           estimate D2E/DX2                !
 ! R21   R(18,27)                1.54           estimate D2E/DX2                !
 ! R22   R(19,20)                1.07           estimate D2E/DX2                !
 ! R23   R(19,21)                1.07           estimate D2E/DX2                !
 ! R24   R(19,22)                1.07           estimate D2E/DX2                !
 ! R25   R(23,24)                1.07           estimate D2E/DX2                !
 ! R26   R(23,25)                1.07           estimate D2E/DX2                !
 ! R27   R(23,26)                1.07           estimate D2E/DX2                !
 ! R28   R(27,28)                1.07           estimate D2E/DX2                !
 ! R29   R(27,29)                1.07           estimate D2E/DX2                !
 ! R30   R(27,30)                1.07           estimate D2E/DX2                !
 ! A1    A(2,1,3)               93.1095         estimate D2E/DX2                !
 ! A2    A(2,1,4)              116.8434         estimate D2E/DX2                !
 ! A3    A(2,1,11)             116.4098         estimate D2E/DX2                !
 ! A4    A(3,1,4)               82.2855         estimate D2E/DX2                !
 ! A5    A(3,1,11)              79.6031         estimate D2E/DX2                !
 ! A6    A(4,1,11)             124.2479         estimate D2E/DX2                !
 ! A7    A(1,4,5)              110.6084         estimate D2E/DX2                !
 ! A8    A(1,4,6)              106.8562         estimate D2E/DX2                !
 ! A9    A(1,4,7)              112.0405         estimate D2E/DX2                !
 ! A10   A(5,4,6)              109.9051         estimate D2E/DX2                !
 ! A11   A(5,4,7)              106.6801         estimate D2E/DX2                !
 ! A12   A(6,4,7)              110.7825         estimate D2E/DX2                !
 ! A13   A(4,7,8)              108.2987         estimate D2E/DX2                !
 ! A14   A(4,7,9)              108.9984         estimate D2E/DX2                !
 ! A15   A(4,7,14)             112.3415         estimate D2E/DX2                !
 ! A16   A(8,7,9)              109.9016         estimate D2E/DX2                !
 ! A17   A(8,7,14)             110.7971         estimate D2E/DX2                !
 ! A18   A(9,7,14)             106.4744         estimate D2E/DX2                !
 ! A19   A(11,10,13)           118.8363         estimate D2E/DX2                !
 ! A20   A(11,10,14)           122.3505         estimate D2E/DX2                !
 ! A21   A(13,10,14)           118.8126         estimate D2E/DX2                !
 ! A22   A(1,11,10)            113.9131         estimate D2E/DX2                !
 ! A23   A(1,11,12)            106.091          estimate D2E/DX2                !
 ! A24   A(10,11,12)           107.6911         estimate D2E/DX2                !
 ! A25   A(7,14,10)            118.6566         estimate D2E/DX2                !
 ! A26   A(7,14,15)            120.6264         estimate D2E/DX2                !
 ! A27   A(10,14,15)           120.6631         estimate D2E/DX2                !
 ! A28   A(15,16,17)           119.9979         estimate D2E/DX2                !
 ! A29   A(15,16,18)           120.0027         estimate D2E/DX2                !
 ! A30   A(17,16,18)           119.9995         estimate D2E/DX2                !
 ! A31   A(16,18,19)           109.4702         estimate D2E/DX2                !
 ! A32   A(16,18,23)           109.47           estimate D2E/DX2                !
 ! A33   A(16,18,27)           109.474          estimate D2E/DX2                !
 ! A34   A(19,18,23)           109.4727         estimate D2E/DX2                !
 ! A35   A(19,18,27)           109.4701         estimate D2E/DX2                !
 ! A36   A(23,18,27)           109.4704         estimate D2E/DX2                !
 ! A37   A(18,19,20)           109.4715         estimate D2E/DX2                !
 ! A38   A(18,19,21)           109.4712         estimate D2E/DX2                !
 ! A39   A(18,19,22)           109.4708         estimate D2E/DX2                !
 ! A40   A(20,19,21)           109.4717         estimate D2E/DX2                !
 ! A41   A(20,19,22)           109.4707         estimate D2E/DX2                !
 ! A42   A(21,19,22)           109.4714         estimate D2E/DX2                !
 ! A43   A(18,23,24)           109.4708         estimate D2E/DX2                !
 ! A44   A(18,23,25)           109.4712         estimate D2E/DX2                !
 ! A45   A(18,23,26)           109.4713         estimate D2E/DX2                !
 ! A46   A(24,23,25)           109.4711         estimate D2E/DX2                !
 ! A47   A(24,23,26)           109.4709         estimate D2E/DX2                !
 ! A48   A(25,23,26)           109.472          estimate D2E/DX2                !
 ! A49   A(18,27,28)           109.4713         estimate D2E/DX2                !
 ! A50   A(18,27,29)           109.4722         estimate D2E/DX2                !
 ! A51   A(18,27,30)           109.4703         estimate D2E/DX2                !
 ! A52   A(28,27,29)           109.4712         estimate D2E/DX2                !
 ! A53   A(28,27,30)           109.4708         estimate D2E/DX2                !
 ! A54   A(29,27,30)           109.4716         estimate D2E/DX2                !
 ! A55   L(14,15,16,28,-1)     179.9802         estimate D2E/DX2                !
 ! A56   L(14,15,16,28,-2)     180.0287         estimate D2E/DX2                !
 ! D1    D(2,1,4,5)             42.2366         estimate D2E/DX2                !
 ! D2    D(2,1,4,6)            -77.3676         estimate D2E/DX2                !
 ! D3    D(2,1,4,7)            161.1226         estimate D2E/DX2                !
 ! D4    D(3,1,4,5)            131.8238         estimate D2E/DX2                !
 ! D5    D(3,1,4,6)             12.2196         estimate D2E/DX2                !
 ! D6    D(3,1,4,7)           -109.2902         estimate D2E/DX2                !
 ! D7    D(11,1,4,5)          -156.3886         estimate D2E/DX2                !
 ! D8    D(11,1,4,6)            84.0072         estimate D2E/DX2                !
 ! D9    D(11,1,4,7)           -37.5027         estimate D2E/DX2                !
 ! D10   D(2,1,11,10)          179.514          estimate D2E/DX2                !
 ! D11   D(2,1,11,12)           61.2274         estimate D2E/DX2                !
 ! D12   D(3,1,11,10)           91.2068         estimate D2E/DX2                !
 ! D13   D(3,1,11,12)          -27.0798         estimate D2E/DX2                !
 ! D14   D(4,1,11,10)           18.0661         estimate D2E/DX2                !
 ! D15   D(4,1,11,12)         -100.2205         estimate D2E/DX2                !
 ! D16   D(1,4,7,8)            166.9239         estimate D2E/DX2                !
 ! D17   D(1,4,7,9)            -73.535          estimate D2E/DX2                !
 ! D18   D(1,4,7,14)            44.2246         estimate D2E/DX2                !
 ! D19   D(5,4,7,8)            -71.897          estimate D2E/DX2                !
 ! D20   D(5,4,7,9)             47.6442         estimate D2E/DX2                !
 ! D21   D(5,4,7,14)           165.4038         estimate D2E/DX2                !
 ! D22   D(6,4,7,8)             47.6982         estimate D2E/DX2                !
 ! D23   D(6,4,7,9)            167.2394         estimate D2E/DX2                !
 ! D24   D(6,4,7,14)           -75.001          estimate D2E/DX2                !
 ! D25   D(4,7,14,10)          -37.4293         estimate D2E/DX2                !
 ! D26   D(4,7,14,15)          145.2219         estimate D2E/DX2                !
 ! D27   D(8,7,14,10)         -158.7081         estimate D2E/DX2                !
 ! D28   D(8,7,14,15)           23.9431         estimate D2E/DX2                !
 ! D29   D(9,7,14,10)           81.8171         estimate D2E/DX2                !
 ! D30   D(9,7,14,15)          -95.5317         estimate D2E/DX2                !
 ! D31   D(13,10,11,1)         171.9588         estimate D2E/DX2                !
 ! D32   D(13,10,11,12)        -70.6751         estimate D2E/DX2                !
 ! D33   D(14,10,11,1)          -7.7462         estimate D2E/DX2                !
 ! D34   D(14,10,11,12)        109.6199         estimate D2E/DX2                !
 ! D35   D(11,10,14,7)          19.0589         estimate D2E/DX2                !
 ! D36   D(11,10,14,15)       -163.5932         estimate D2E/DX2                !
 ! D37   D(13,10,14,7)        -160.6461         estimate D2E/DX2                !
 ! D38   D(13,10,14,15)         16.7017         estimate D2E/DX2                !
 ! D39   D(7,14,16,17)          91.4926         estimate D2E/DX2                !
 ! D40   D(7,14,16,18)         -88.5263         estimate D2E/DX2                !
 ! D41   D(10,14,16,17)        -85.8028         estimate D2E/DX2                !
 ! D42   D(10,14,16,18)         94.1783         estimate D2E/DX2                !
 ! D43   D(15,16,18,19)         90.0026         estimate D2E/DX2                !
 ! D44   D(15,16,18,23)       -149.997          estimate D2E/DX2                !
 ! D45   D(15,16,18,27)        -29.997          estimate D2E/DX2                !
 ! D46   D(17,16,18,19)        -89.9972         estimate D2E/DX2                !
 ! D47   D(17,16,18,23)         30.0033         estimate D2E/DX2                !
 ! D48   D(17,16,18,27)        150.0032         estimate D2E/DX2                !
 ! D49   D(16,18,19,20)        -60.0049         estimate D2E/DX2                !
 ! D50   D(16,18,19,21)         59.9958         estimate D2E/DX2                !
 ! D51   D(16,18,19,22)        179.9957         estimate D2E/DX2                !
 ! D52   D(23,18,19,20)        179.9963         estimate D2E/DX2                !
 ! D53   D(23,18,19,21)        -60.0029         estimate D2E/DX2                !
 ! D54   D(23,18,19,22)         59.997          estimate D2E/DX2                !
 ! D55   D(27,18,19,20)         59.9971         estimate D2E/DX2                !
 ! D56   D(27,18,19,21)        179.9979         estimate D2E/DX2                !
 ! D57   D(27,18,19,22)        -60.0023         estimate D2E/DX2                !
 ! D58   D(16,18,23,24)         60.002          estimate D2E/DX2                !
 ! D59   D(16,18,23,25)       -179.9984         estimate D2E/DX2                !
 ! D60   D(16,18,23,26)        -59.9974         estimate D2E/DX2                !
 ! D61   D(19,18,23,24)       -179.9992         estimate D2E/DX2                !
 ! D62   D(19,18,23,25)        -59.9995         estimate D2E/DX2                !
 ! D63   D(19,18,23,26)         60.0015         estimate D2E/DX2                !
 ! D64   D(27,18,23,24)        -60.0001         estimate D2E/DX2                !
 ! D65   D(27,18,23,25)         59.9995         estimate D2E/DX2                !
 ! D66   D(27,18,23,26)       -179.9995         estimate D2E/DX2                !
 ! D67   D(16,18,27,28)        -60.0009         estimate D2E/DX2                !
 ! D68   D(16,18,27,29)         59.9997         estimate D2E/DX2                !
 ! D69   D(16,18,27,30)       -179.9998         estimate D2E/DX2                !
 ! D70   D(19,18,27,28)        179.9994         estimate D2E/DX2                !
 ! D71   D(19,18,27,29)        -60.0            estimate D2E/DX2                !
 ! D72   D(19,18,27,30)         60.0005         estimate D2E/DX2                !
 ! D73   D(23,18,27,28)         59.9988         estimate D2E/DX2                !
 ! D74   D(23,18,27,29)        179.9994         estimate D2E/DX2                !
 ! D75   D(23,18,27,30)        -60.0002         estimate D2E/DX2                !
 --------------------------------------------------------------------------------
 Trust Radius=3.00D-01 FncErr=1.00D-07 GrdErr=1.00D-06 EigMax=2.50D+02 EigMin=1.00D-04
 Number of steps in this run=    180 maximum allowed number of steps=    180.
 GradGradGradGradGradGradGradGradGradGradGradGradGradGradGradGradGradGrad

 Leave Link  103 at Wed Jul 10 10:38:34 2024, MaxMem=  2684354560 cpu:               0.2 elap:               0.0
 (Enter /mnt/data/applications/G16/g16/l202.exe)
                          Input orientation:                          
 ---------------------------------------------------------------------
 Center     Atomic      Atomic             Coordinates (Angstroms)
 Number     Number       Type             X           Y           Z
 ---------------------------------------------------------------------
      1          6           0       -6.877288    3.512098    2.779722
      2          1           0       -6.105335    2.901057    2.360651
      3          1           0       -7.095145    2.807090    3.554575
      4          6           0       -6.488317    4.400037    3.983485
      5          1           0       -5.533697    4.855754    3.822426
      6          1           0       -6.446746    3.760403    4.840233
      7          6           0       -7.492507    5.544804    4.204972
      8          1           0       -7.304799    5.975011    5.166528
      9          1           0       -7.353509    6.282487    3.442483
     10          6           0       -9.290914    4.018649    3.042194
     11          7           0       -8.271811    3.148348    2.426461
     12          1           0       -8.413170    2.221579    2.774537
     13          8           0      -10.491549    3.892435    2.687146
     14          6           0       -8.938968    5.076263    4.094652
     15          6           0       -9.903268    5.623307    4.874146
     16          6           0      -10.868013    6.169843    5.653218
     17          1           0      -11.424062    7.014238    5.302839
     18          6           0      -11.164111    5.575721    7.042810
     19          6           0      -10.280844    6.269437    8.096493
     20          1           0       -9.249887    6.115293    7.855062
     21          1           0      -10.492332    7.318314    8.104520
     22          1           0      -10.486619    5.856700    9.061998
     23          6           0      -12.647919    5.797478    7.390313
     24          1           0      -13.261589    5.315456    6.658199
     25          1           0      -12.853666    5.384709    8.355821
     26          1           0      -12.859463    6.846325    7.398347
     27          6           0      -10.859669    4.066140    7.031240
     28          1           0      -11.473371    3.584117    6.299142
     29          1           0       -9.828718    3.912029    6.789785
     30          1           0      -11.065418    3.653408    7.996744
 ---------------------------------------------------------------------
                    Distance matrix (angstroms):
                    1          2          3          4          5
     1  C    0.000000
     2  H    1.070002   0.000000
     3  H    1.069998   1.553709   0.000000
     4  C    1.545568   2.242143   1.757750   0.000000
     5  H    2.167459   2.506870   2.589766   1.070008   0.000000
     6  H    2.119606   2.646388   1.726889   1.069989   1.751966
     7  C    2.557681   3.509298   2.841830   1.538814   2.111415
     8  H    3.456234   4.331380   3.560628   2.132318   2.489207
     9  H    2.888095   3.763292   3.486789   2.141228   2.343424
    10  C    2.480136   3.444043   2.559650   2.980946   3.927618
    11  N    1.483847   2.181537   1.665425   2.678041   3.515853
    12  H    2.006090   2.441126   1.639656   3.148380   4.040830
    13  O    3.635397   4.508692   3.669600   4.238399   5.176595
    14  C    2.902788   3.970864   2.973300   2.544667   3.423244
    15  C    4.242685   5.305903   4.190215   3.735179   4.559430
    16  C    5.589855   6.648990   5.472380   5.010186   5.790817
    17  H    6.269311   7.339182   6.284588   5.739018   6.445703
    18  C    6.388217   7.393758   6.032378   5.710058   6.526162
    19  C    6.888771   7.853709   6.539537   5.898708   6.542290
    20  H    6.177777   7.099864   5.837919   5.055441   5.626603
    21  H    7.477253   8.470534   7.252174   6.444487   6.999186
    22  H    7.615210   8.534608   7.150798   6.625676   7.279179
    23  C    7.731798   8.745980   7.381640   7.176352   8.014289
    24  H    7.684659   8.689661   7.345026   7.339571   8.244589
    25  H    8.385502   9.362188   7.928218   7.784894   8.626321
    26  H    8.260460   9.303858   8.019811   7.631325   8.391450
    27  C    5.851643   6.765761   5.276745   5.339384   6.267851
    28  H    5.789256   6.692839   5.225445   5.556866   6.559795
    29  H    4.995146   5.873915   4.377201   4.389960   5.305001
    30  H    6.691616   7.545462   6.017656   6.132989   7.033527
                    6          7          8          9         10
     6  H    0.000000
     7  C    2.163622   0.000000
     8  H    2.397334   1.070000   0.000000
     9  H    3.022719   1.069993   1.751926   0.000000
    10  C    3.374749   2.629728   3.504968   3.006449   0.000000
    11  N    3.087357   3.084383   4.053776   3.420293   1.474829
    12  H    3.240664   3.733308   4.586759   4.249706   2.017804
    13  O    4.584065   3.745446   4.543108   4.016239   1.258377
    14  C    2.915227   1.524450   2.151086   2.096182   1.532998
    15  C    3.926717   2.503143   2.638413   2.997574   2.511166
    16  C    5.100387   3.725873   3.601572   4.153526   3.732603
    17  H    5.964488   4.338395   4.250518   4.534953   4.316757
    18  C    5.513643   4.640577   4.309774   5.289855   4.683831
    19  C    5.621280   4.841885   4.186672   5.498116   5.620672
    20  H    4.742604   4.091087   3.321334   4.805732   5.249885
    21  H    6.299291   5.229796   4.538351   5.714871   6.161035
    22  H    6.207925   5.714252   5.031169   6.447994   6.406730
    23  C    7.007648   6.065354   5.790136   6.622038   5.774068
    24  H    7.222553   6.273215   6.176037   6.795689   5.524804
    25  H    7.486411   6.782123   6.427283   7.429578   6.541709
    26  H    7.562394   6.379327   6.049339   6.803111   6.301299
    27  C    4.936383   4.638105   4.445002   5.484937   4.286693
    28  H    5.237027   4.906844   4.937224   5.693414   3.944571
    29  H    3.906594   3.847738   3.641568   4.790632   3.787484
    30  H    5.595278   5.542617   5.248068   6.436740   5.275398
                   11         12         13         14         15
    11  N    0.000000
    12  H    1.000020   0.000000
    13  O    2.355601   2.668156   0.000000
    14  C    2.635302   3.188791   2.406871   0.000000
    15  C    3.844247   4.266205   2.850431   1.355265   0.000000
    16  C    5.126564   5.468258   3.758443   2.710399   1.355134
    17  H    5.758068   6.198981   4.178168   3.375079   2.105061
    18  C    5.963910   6.085730   4.717796   3.727245   2.509003
    19  C    6.776922   6.942376   5.912323   4.386232   3.308107
    20  H    6.263314   6.455450   5.761091   3.913686   3.091087
    21  H    7.386453   7.662138   6.409726   4.849617   3.695317
    22  H    7.501393   7.552845   6.670614   5.261068   4.234723
    23  C    7.127976   7.212874   5.513520   5.013767   3.727539
    24  H    6.892158   6.939890   5.046520   5.031306   3.815224
    25  H    7.819975   7.802187   6.319838   5.794615   4.569884
    26  H    7.709814   7.908061   6.043831   5.423819   4.075102
    27  C    5.361282   5.244739   4.363123   3.651437   2.827106
    28  H    5.043564   4.862528   3.755735   3.675524   2.941791
    29  H    4.695291   4.580787   4.155884   3.067709   2.569767
    30  H    6.251990   6.029594   5.345866   4.666115   3.870622
                   16         17         18         19         20
    16  C    0.000000
    17  H    1.070027   0.000000
    18  C    1.540007   2.272532   0.000000
    19  C    2.514812   3.109048   1.540017   0.000000
    20  H    2.733025   3.471164   2.148289   1.070010   0.000000
    21  H    2.732948   2.968164   2.148289   1.070017   1.747330
    22  H    3.444315   4.043509   2.148271   1.069997   1.747304
    23  C    2.514801   2.708483   1.540007   2.514852   3.444361
    24  H    2.732978   2.845938   2.148273   3.444359   4.262156
    25  H    3.444317   3.744306   2.148274   2.733022   3.711029
    26  H    2.732943   2.545530   2.148269   2.733036   3.711070
    27  C    2.514873   3.463696   1.540018   2.514820   2.732967
    28  H    2.733068   3.572224   2.148295   3.444349   3.711013
    29  H    2.733065   3.792074   2.148294   2.732998   2.514802
    30  H    3.444347   4.322143   2.148260   2.732968   3.062206
                   21         22         23         24         25
    21  H    0.000000
    22  H    1.747316   0.000000
    23  C    2.733055   2.732994   0.000000
    24  H    3.711074   3.711018   1.070013   0.000000
    25  H    3.062332   2.514831   1.070007   1.747318   0.000000
    26  H    2.514908   3.062268   1.069998   1.747308   1.747316
    27  C    3.444344   2.732993   2.514817   2.732979   2.732977
    28  H    4.262166   3.711023   2.732981   2.514793   3.062234
    29  H    3.711023   3.062276   3.444335   3.711001   3.711006
    30  H    3.711008   2.514811   2.732966   3.062233   2.514790
                   26         27         28         29         30
    26  H    0.000000
    27  C    3.444325   0.000000
    28  H    3.710998   1.070021   0.000000
    29  H    4.262142   1.070005   1.747324   0.000000
    30  H    3.710983   1.069989   1.747306   1.747302   0.000000
 Symmetry turned off by external request.
 Stoichiometry    C11H17NO
 Framework group  C1[X(C11H17NO)]
 Deg. of freedom    84
 Full point group                 C1      NOp   1
 Rotational constants (GHZ):           1.4979818           0.4070088           0.3619807
 Leave Link  202 at Wed Jul 10 10:38:34 2024, MaxMem=  2684354560 cpu:               0.1 elap:               0.0
 (Enter /mnt/data/applications/G16/g16/l301.exe)
 General basis read from cards:  (5D, 7F)
 Centers:       1      4      7     10     14     15     16     18     19     23
 Centers:      27      2      3      5      6      8      9     12     17     20
 Centers:      21     22     24     25     26     28     29     30     13     11
 cc-pVTZ
 ****
 ======================================================================================================
                                       Pseudopotential Parameters
 ======================================================================================================
  Center     Atomic      Valence      Angular      Power
  Number     Number     Electrons     Momentum     of R      Exponent        Coefficient   SO-Coeffient
 ======================================================================================================
    1          6
                                   No pseudopotential on this center.
    2          1
                                   No pseudopotential on this center.
    3          1
                                   No pseudopotential on this center.
    4          6
                                   No pseudopotential on this center.
    5          1
                                   No pseudopotential on this center.
    6          1
                                   No pseudopotential on this center.
    7          6
                                   No pseudopotential on this center.
    8          1
                                   No pseudopotential on this center.
    9          1
                                   No pseudopotential on this center.
   10          6
                                   No pseudopotential on this center.
   11          7
                                   No pseudopotential on this center.
   12          1
                                   No pseudopotential on this center.
   13          8
                                   No pseudopotential on this center.
   14          6
                                   No pseudopotential on this center.
   15          6
                                   No pseudopotential on this center.
   16          6
                                   No pseudopotential on this center.
   17          1
                                   No pseudopotential on this center.
   18          6
                                   No pseudopotential on this center.
   19          6
                                   No pseudopotential on this center.
   20          1
                                   No pseudopotential on this center.
   21          1
                                   No pseudopotential on this center.
   22          1
                                   No pseudopotential on this center.
   23          6
                                   No pseudopotential on this center.
   24          1
                                   No pseudopotential on this center.
   25          1
                                   No pseudopotential on this center.
   26          1
                                   No pseudopotential on this center.
   27          6
                                   No pseudopotential on this center.
   28          1
                                   No pseudopotential on this center.
   29          1
                                   No pseudopotential on this center.
   30          1
                                   No pseudopotential on this center.
 ======================================================================================================
 Ernie: Thresh=  0.10000D-02 Tol=  0.10000D-05 Strict=F.
 Ernie:  39 primitive shells out of 474 were deleted.
   628 basis functions,   965 primitive gaussians,   710 cartesian basis functions
    49 alpha electrons       49 beta electrons
       nuclear repulsion energy       786.3968625078 Hartrees.
 IExCor=  402 DFT=T Ex+Corr=B3LYP ExCW=0 ScaHFX=  0.200000
 ScaDFX=  0.800000  0.720000  1.000000  0.810000 ScalE2=  1.000000  1.000000
 IRadAn=      5 IRanWt=     -1 IRanGd=            0 ICorTp=0 IEmpDi=141
 NAtoms=   30 NActive=   30 NUniq=   30 SFac= 1.00D+00 NAtFMM=   60 NAOKFM=F Big=F
 Integral buffers will be    131072 words long.
 Raffenetti 2 integral format.
 Two-electron integral symmetry is turned off.
 R6Disp:  Grimme-D3(BJ) Dispersion energy=       -0.0530425334 Hartrees.
 Nuclear repulsion after empirical dispersion term =      786.3438199744 Hartrees.
 ------------------------------------------------------------------------------
 Polarizable Continuum Model (PCM)
 =================================
 Model                : PCM.
 Atomic radii         : UFF (Universal Force Field).
 Polarization charges : Total charges.
 Charge compensation  : None.
 Solution method      : On-the-fly selection.
 Cavity type          : Scaled VdW (van der Waals Surface) (Alpha=1.100).
 Cavity algorithm     : GePol (No added spheres)
                        Default sphere list used, NSphG=   30.
                        Lebedev-Laikov grids with approx.  5.0 points / Ang**2.
                        Smoothing algorithm: York/Karplus (Gamma=1.0000).
                        Polarization charges: spherical gaussians, with
                                              point-specific exponents (IZeta= 3).
                        Self-potential: point-specific (ISelfS= 7).
                        Self-field    : sphere-specific E.n sum rule (ISelfD= 2).
 1st derivatives      : Analytical E(r).r(x)/FMM algorithm (CHGder, D1EAlg=3).
                        Cavity 1st derivative terms included.
 Solvent              : Acetonitrile, Eps=  35.688000 Eps(inf)=   1.806874
 ------------------------------------------------------------------------------
 GePol: Number of generator spheres                  =      30
 GePol: Total number of spheres                      =      30
 GePol: Number of exposed spheres                    =      30 (100.00%)
 GePol: Number of points                             =    2127
 GePol: Average weight of points                     =       0.13
 GePol: Minimum weight of points                     =   0.23D-09
 GePol: Maximum weight of points                     =    0.20577
 GePol: Number of points with low weight             =     155
 GePol: Fraction of low-weight points (<1% of avg)   =       7.29%
 GePol: Cavity surface area                          =    283.123 Ang**2
 GePol: Cavity volume                                =    290.850 Ang**3
 Leave Link  301 at Wed Jul 10 10:38:34 2024, MaxMem=  2684354560 cpu:               1.7 elap:               0.2
 (Enter /mnt/data/applications/G16/g16/l302.exe)
 NPDir=0 NMtPBC=     1 NCelOv=     1 NCel=       1 NClECP=     1 NCelD=      1
         NCelK=      1 NCelE2=     1 NClLst=     1 CellRange=     0.0.
 One-electron integrals computed using PRISM.
   1 Symmetry operations used in ECPInt.
 ECPInt:  NShTT=   27028 NPrTT=   95388 LenC2=   24620 LenP2D=   61326.
 LDataN:  DoStor=T MaxTD1= 6 Len=  172
 NBasis=   628 RedAO= T EigKep=  3.05D-05  NBF=   628
 NBsUse=   628 1.00D-06 EigRej= -1.00D+00 NBFU=   628
 Precomputing XC quadrature grid using
 IXCGrd= 4 IRadAn=           5 IRanWt=          -1 IRanGd=           0 AccXCQ= 0.00D+00.
 Generated NRdTot=       0 NPtTot=           0 NUsed=           0 NTot=          32
 NSgBfM=   709   709   709   709   709 MxSgAt=    30 MxSgA2=    30.
 Leave Link  302 at Wed Jul 10 10:38:36 2024, MaxMem=  2684354560 cpu:              25.7 elap:               2.2
 (Enter /mnt/data/applications/G16/g16/l303.exe)
 DipDrv:  MaxL=1.
 Leave Link  303 at Wed Jul 10 10:38:37 2024, MaxMem=  2684354560 cpu:               1.6 elap:               0.2
 (Enter /mnt/data/applications/G16/g16/l401.exe)
 ExpMin= 1.03D-01 ExpMax= 1.53D+04 ExpMxC= 5.22D+02 IAcc=3 IRadAn=         5 AccDes= 0.00D+00
 Harris functional with IExCor=  402 and IRadAn=       5 diagonalized for initial guess.
 HarFok:  IExCor=  402 AccDes= 0.00D+00 IRadAn=         5 IDoV= 1 UseB2=F ITyADJ=14
 ICtDFT=  3500011 ScaDFX=  1.000000  1.000000  1.000000  1.000000
 FoFCou: FMM=F IPFlag=           0 FMFlag=      100000 FMFlg1=           0
         NFxFlg=           0 DoJE=T BraDBF=F KetDBF=T FulRan=T
         wScrn=  0.000000 ICntrl=       500 IOpCl=  0 I1Cent=   200000004 NGrid=           0
         NMat0=    1 NMatS0=      1 NMatT0=    0 NMatD0=    1 NMtDS0=    0 NMtDT0=    0
 Symmetry not used in FoFCou.
 Harris En= -559.594651347197    
 JPrj=0 DoOrth=F DoCkMO=F.
 Leave Link  401 at Wed Jul 10 10:38:48 2024, MaxMem=  2684354560 cpu:             137.1 elap:              11.5
 (Enter /mnt/data/applications/G16/g16/l502.exe)
 Two-electron integral symmetry not used.
 Closed shell SCF:
 Using DIIS extrapolation, IDIIS=  1040.
 NGot=  2684354560 LenX=  2683333188 LenY=  2682828378
 Requested convergence on RMS density matrix=1.00D-08 within 128 cycles.
 Requested convergence on MAX density matrix=1.00D-06.
 Requested convergence on             energy=1.00D-06.
 No special actions if energy rises.
 Fock matrices will be formed incrementally for  20 cycles.

 Cycle   1  Pass 1  IDiag  1:
 FoFJK:  IHMeth= 1 ICntrl=       0 DoSepK=F KAlg= 0 I1Cent=           0 FoldK=F
 IRaf= 850000000 NMat=       1 IRICut=       1 DoRegI=T DoRafI=F ISym2E= 0 IDoP0=0 IntGTp=1.
 FoFCou: FMM=F IPFlag=           0 FMFlag=      100000 FMFlg1=           0
         NFxFlg=           0 DoJE=F BraDBF=F KetDBF=F FulRan=T
         wScrn=  0.000000 ICntrl=         0 IOpCl=  0 I1Cent=           0 NGrid=           0
         NMat0=    1 NMatS0=      1 NMatT0=    0 NMatD0=    1 NMtDS0=    0 NMtDT0=    0
 Symmetry not used in FoFCou.
 Inv3:  Mode=1 IEnd=    13572387.
 Iteration    1 A*A^-1 deviation from unit magnitude is 2.44D-15 for   2038.
 Iteration    1 A*A^-1 deviation from orthogonality  is 1.40D-15 for   1908    838.
 Iteration    1 A^-1*A deviation from unit magnitude is 2.44D-15 for   2038.
 Iteration    1 A^-1*A deviation from orthogonality  is 1.20D-15 for   1811   1183.
 E= -559.005721681945    
 DIIS: error= 2.66D-02 at cycle   1 NSaved=   1.
 NSaved= 1 IEnMin= 1 EnMin= -559.005721681945     IErMin= 1 ErrMin= 2.66D-02
 ErrMax= 2.66D-02  0.00D+00 EMaxC= 1.00D-01 BMatC= 5.32D-01 BMatP= 5.32D-01
 IDIUse=3 WtCom= 7.34D-01 WtEn= 2.66D-01
 Coeff-Com:  0.100D+01
 Coeff-En:   0.100D+01
 Coeff:      0.100D+01
 Gap=     0.146 Goal=   None    Shift=    0.000
 GapD=    0.146 DampG=1.000 DampE=0.500 DampFc=0.5000 IDamp=-1.
 Damping current iteration by 5.00D-01
 RMSDP=2.82D-03 MaxDP=2.66D-01              OVMax= 2.08D-01

 Cycle   2  Pass 1  IDiag  1:
 RMSU=  1.41D-03    CP:  9.96D-01
 E= -559.173998553236     Delta-E=       -0.168276871291 Rises=F Damp=T
 DIIS: error= 8.64D-03 at cycle   2 NSaved=   2.
 NSaved= 2 IEnMin= 2 EnMin= -559.173998553236     IErMin= 2 ErrMin= 8.64D-03
 ErrMax= 8.64D-03  0.00D+00 EMaxC= 1.00D-01 BMatC= 5.87D-02 BMatP= 5.32D-01
 IDIUse=3 WtCom= 9.14D-01 WtEn= 8.64D-02
 Coeff-Com:  0.153D+00 0.847D+00
 Coeff-En:   0.256D+00 0.744D+00
 Coeff:      0.162D+00 0.838D+00
 Gap=     0.204 Goal=   None    Shift=    0.000
 RMSDP=8.53D-04 MaxDP=8.39D-02 DE=-1.68D-01 OVMax= 2.43D-01

 Cycle   3  Pass 1  IDiag  1:
 RMSU=  5.80D-04    CP:  9.94D-01  5.57D-01
 E= -559.418153440563     Delta-E=       -0.244154887327 Rises=F Damp=F
 DIIS: error= 1.29D-02 at cycle   3 NSaved=   3.
 NSaved= 3 IEnMin= 3 EnMin= -559.418153440563     IErMin= 2 ErrMin= 8.64D-03
 ErrMax= 1.29D-02  0.00D+00 EMaxC= 1.00D-01 BMatC= 7.65D-02 BMatP= 5.87D-02
 IDIUse=2 WtCom= 0.00D+00 WtEn= 1.00D+00
 Coeff-En:   0.000D+00 0.000D+00 0.100D+01
 Coeff:      0.000D+00 0.000D+00 0.100D+01
 Gap=     0.178 Goal=   None    Shift=    0.000
 RMSDP=1.39D-03 MaxDP=1.35D-01 DE=-2.44D-01 OVMax= 2.84D-01

 Cycle   4  Pass 1  IDiag  1:
 RMSU=  6.11D-04    CP:  1.00D+00  1.21D+00 -4.40D-01
 E= -559.109294290041     Delta-E=        0.308859150522 Rises=F Damp=F
 DIIS: error= 3.06D-02 at cycle   4 NSaved=   4.
 NSaved= 4 IEnMin= 3 EnMin= -559.418153440563     IErMin= 2 ErrMin= 8.64D-03
 ErrMax= 3.06D-02  0.00D+00 EMaxC= 1.00D-01 BMatC= 4.66D-01 BMatP= 5.87D-02
 IDIUse=2 WtCom= 0.00D+00 WtEn= 1.00D+00
 Coeff-En:   0.000D+00 0.000D+00 0.804D+00 0.196D+00
 Coeff:      0.000D+00 0.000D+00 0.804D+00 0.196D+00
 Gap=     0.175 Goal=   None    Shift=    0.000
 RMSDP=8.44D-04 MaxDP=1.02D-01 DE= 3.09D-01 OVMax= 1.04D-01

 Cycle   5  Pass 1  IDiag  1:
 RMSU=  1.37D-04    CP:  9.98D-01  7.78D-01  3.57D-01  4.61D-01
 E= -559.450113823495     Delta-E=       -0.340819533455 Rises=F Damp=F
 DIIS: error= 8.98D-03 at cycle   5 NSaved=   5.
 NSaved= 5 IEnMin= 5 EnMin= -559.450113823495     IErMin= 2 ErrMin= 8.64D-03
 ErrMax= 8.98D-03  0.00D+00 EMaxC= 1.00D-01 BMatC= 3.67D-02 BMatP= 5.87D-02
 IDIUse=3 WtCom= 9.10D-01 WtEn= 8.98D-02
 Coeff-Com: -0.408D-03 0.221D-01 0.323D+00-0.845D-01 0.739D+00
 Coeff-En:   0.000D+00 0.000D+00 0.363D+00 0.000D+00 0.637D+00
 Coeff:     -0.371D-03 0.202D-01 0.327D+00-0.769D-01 0.730D+00
 Gap=     0.172 Goal=   None    Shift=    0.000
 RMSDP=2.37D-04 MaxDP=1.89D-02 DE=-3.41D-01 OVMax= 3.43D-02

 Cycle   6  Pass 1  IDiag  1:
 RMSU=  3.14D-05    CP:  9.96D-01  6.79D-01  6.20D-01  2.88D-01  7.65D-01
 E= -559.478472616422     Delta-E=       -0.028358792927 Rises=F Damp=F
 DIIS: error= 5.97D-04 at cycle   6 NSaved=   6.
 NSaved= 6 IEnMin= 6 EnMin= -559.478472616422     IErMin= 6 ErrMin= 5.97D-04
 ErrMax= 5.97D-04  0.00D+00 EMaxC= 1.00D-01 BMatC= 1.83D-04 BMatP= 3.67D-02
 IDIUse=3 WtCom= 9.94D-01 WtEn= 5.97D-03
 Coeff-Com: -0.130D-02 0.965D-02 0.168D+00-0.584D-01 0.436D+00 0.445D+00
 Coeff-En:   0.000D+00 0.000D+00 0.000D+00 0.000D+00 0.000D+00 0.100D+01
 Coeff:     -0.129D-02 0.959D-02 0.167D+00-0.580D-01 0.434D+00 0.449D+00
 Gap=     0.169 Goal=   None    Shift=    0.000
 RMSDP=1.67D-05 MaxDP=1.08D-03 DE=-2.84D-02 OVMax= 5.12D-03

 Cycle   7  Pass 1  IDiag  1:
 RMSU=  1.02D-05    CP:  9.96D-01  6.82D-01  6.17D-01  2.85D-01  8.03D-01
                    CP:  6.39D-01
 E= -559.478628488208     Delta-E=       -0.000155871786 Rises=F Damp=F
 DIIS: error= 1.14D-04 at cycle   7 NSaved=   7.
 NSaved= 7 IEnMin= 7 EnMin= -559.478628488208     IErMin= 7 ErrMin= 1.14D-04
 ErrMax= 1.14D-04  0.00D+00 EMaxC= 1.00D-01 BMatC= 2.31D-05 BMatP= 1.83D-04
 IDIUse=3 WtCom= 9.99D-01 WtEn= 1.14D-03
 Coeff-Com:  0.613D-04 0.260D-03 0.431D-01-0.176D-01 0.113D+00 0.224D+00
 Coeff-Com:  0.638D+00
 Coeff-En:   0.000D+00 0.000D+00 0.000D+00 0.000D+00 0.000D+00 0.737D-01
 Coeff-En:   0.926D+00
 Coeff:      0.612D-04 0.260D-03 0.430D-01-0.176D-01 0.113D+00 0.224D+00
 Coeff:      0.638D+00
 Gap=     0.169 Goal=   None    Shift=    0.000
 RMSDP=5.22D-06 MaxDP=3.85D-04 DE=-1.56D-04 OVMax= 1.86D-03

 Cycle   8  Pass 1  IDiag  1:
 RMSU=  3.17D-06    CP:  9.96D-01  6.81D-01  6.20D-01  2.85D-01  7.94D-01
                    CP:  7.20D-01  7.91D-01
 E= -559.478648840796     Delta-E=       -0.000020352588 Rises=F Damp=F
 DIIS: error= 5.65D-05 at cycle   8 NSaved=   8.
 NSaved= 8 IEnMin= 8 EnMin= -559.478648840796     IErMin= 8 ErrMin= 5.65D-05
 ErrMax= 5.65D-05  0.00D+00 EMaxC= 1.00D-01 BMatC= 2.53D-06 BMatP= 2.31D-05
 IDIUse=1 WtCom= 1.00D+00 WtEn= 0.00D+00
 Coeff-Com:  0.389D-03-0.125D-02 0.779D-02-0.282D-02 0.144D-01 0.737D-01
 Coeff-Com:  0.359D+00 0.549D+00
 Coeff:      0.389D-03-0.125D-02 0.779D-02-0.282D-02 0.144D-01 0.737D-01
 Coeff:      0.359D+00 0.549D+00
 Gap=     0.169 Goal=   None    Shift=    0.000
 RMSDP=2.14D-06 MaxDP=1.47D-04 DE=-2.04D-05 OVMax= 3.84D-04

 Cycle   9  Pass 1  IDiag  1:
 RMSU=  9.97D-07    CP:  9.96D-01  6.80D-01  6.21D-01  2.85D-01  7.94D-01
                    CP:  7.12D-01  8.38D-01  7.28D-01
 E= -559.478651002553     Delta-E=       -0.000002161757 Rises=F Damp=F
 DIIS: error= 6.42D-06 at cycle   9 NSaved=   9.
 NSaved= 9 IEnMin= 9 EnMin= -559.478651002553     IErMin= 9 ErrMin= 6.42D-06
 ErrMax= 6.42D-06  0.00D+00 EMaxC= 1.00D-01 BMatC= 5.55D-08 BMatP= 2.53D-06
 IDIUse=1 WtCom= 1.00D+00 WtEn= 0.00D+00
 Coeff-Com:  0.170D-03-0.519D-03 0.658D-03-0.974D-04-0.781D-03 0.161D-01
 Coeff-Com:  0.991D-01 0.217D+00 0.669D+00
 Coeff:      0.170D-03-0.519D-03 0.658D-03-0.974D-04-0.781D-03 0.161D-01
 Coeff:      0.991D-01 0.217D+00 0.669D+00
 Gap=     0.169 Goal=   None    Shift=    0.000
 RMSDP=4.31D-07 MaxDP=3.47D-05 DE=-2.16D-06 OVMax= 1.44D-04

 Cycle  10  Pass 1  IDiag  1:
 RMSU=  3.44D-07    CP:  9.96D-01  6.80D-01  6.21D-01  2.85D-01  7.94D-01
                    CP:  7.15D-01  8.45D-01  7.42D-01  7.92D-01
 E= -559.478651031611     Delta-E=       -0.000000029058 Rises=F Damp=F
 DIIS: error= 4.23D-06 at cycle  10 NSaved=  10.
 NSaved=10 IEnMin=10 EnMin= -559.478651031611     IErMin=10 ErrMin= 4.23D-06
 ErrMax= 4.23D-06  0.00D+00 EMaxC= 1.00D-01 BMatC= 2.74D-08 BMatP= 5.55D-08
 IDIUse=1 WtCom= 1.00D+00 WtEn= 0.00D+00
 Coeff-Com:  0.641D-04-0.175D-03-0.520D-03 0.195D-03-0.207D-02 0.333D-02
 Coeff-Com:  0.273D-01 0.866D-01 0.453D+00 0.432D+00
 Coeff:      0.641D-04-0.175D-03-0.520D-03 0.195D-03-0.207D-02 0.333D-02
 Coeff:      0.273D-01 0.866D-01 0.453D+00 0.432D+00
 Gap=     0.169 Goal=   None    Shift=    0.000
 RMSDP=2.19D-07 MaxDP=1.71D-05 DE=-2.91D-08 OVMax= 6.03D-05

 Cycle  11  Pass 1  IDiag  1:
 RMSU=  8.58D-08    CP:  9.96D-01  6.80D-01  6.21D-01  2.85D-01  7.94D-01
                    CP:  7.17D-01  8.46D-01  7.55D-01  8.51D-01  5.54D-01
 E= -559.478651058336     Delta-E=       -0.000000026725 Rises=F Damp=F
 DIIS: error= 1.85D-06 at cycle  11 NSaved=  11.
 NSaved=11 IEnMin=11 EnMin= -559.478651058336     IErMin=11 ErrMin= 1.85D-06
 ErrMax= 1.85D-06  0.00D+00 EMaxC= 1.00D-01 BMatC= 1.39D-09 BMatP= 2.74D-08
 IDIUse=1 WtCom= 1.00D+00 WtEn= 0.00D+00
 Coeff-Com:  0.846D-05-0.166D-04-0.422D-03 0.140D-03-0.111D-02 0.136D-04
 Coeff-Com:  0.187D-02 0.198D-01 0.148D+00 0.174D+00 0.657D+00
 Coeff:      0.846D-05-0.166D-04-0.422D-03 0.140D-03-0.111D-02 0.136D-04
 Coeff:      0.187D-02 0.198D-01 0.148D+00 0.174D+00 0.657D+00
 Gap=     0.169 Goal=   None    Shift=    0.000
 RMSDP=4.78D-08 MaxDP=2.84D-06 DE=-2.67D-08 OVMax= 9.82D-06

 Cycle  12  Pass 1  IDiag  1:
 RMSU=  3.50D-08    CP:  9.96D-01  6.80D-01  6.21D-01  2.85D-01  7.94D-01
                    CP:  7.17D-01  8.46D-01  7.58D-01  8.70D-01  5.74D-01
                    CP:  8.68D-01
 E= -559.478651059290     Delta-E=       -0.000000000954 Rises=F Damp=F
 DIIS: error= 6.20D-07 at cycle  12 NSaved=  12.
 NSaved=12 IEnMin=12 EnMin= -559.478651059290     IErMin=12 ErrMin= 6.20D-07
 ErrMax= 6.20D-07  0.00D+00 EMaxC= 1.00D-01 BMatC= 3.25D-10 BMatP= 1.39D-09
 IDIUse=1 WtCom= 1.00D+00 WtEn= 0.00D+00
 Coeff-Com: -0.629D-05 0.123D-04-0.150D-03 0.502D-04-0.272D-03-0.223D-03
 Coeff-Com: -0.275D-02-0.747D-03 0.176D-01 0.272D-01 0.362D+00 0.597D+00
 Coeff:     -0.629D-05 0.123D-04-0.150D-03 0.502D-04-0.272D-03-0.223D-03
 Coeff:     -0.275D-02-0.747D-03 0.176D-01 0.272D-01 0.362D+00 0.597D+00
 Gap=     0.169 Goal=   None    Shift=    0.000
 RMSDP=3.31D-08 MaxDP=2.29D-06 DE=-9.54D-10 OVMax= 4.64D-06

 Cycle  13  Pass 1  IDiag  1:
 RMSU=  1.06D-08    CP:  9.96D-01  6.80D-01  6.21D-01  2.85D-01  7.94D-01
                    CP:  7.17D-01  8.46D-01  7.59D-01  8.71D-01  5.83D-01
                    CP:  9.47D-01  7.66D-01
 E= -559.478651059552     Delta-E=       -0.000000000262 Rises=F Damp=F
 DIIS: error= 1.54D-07 at cycle  13 NSaved=  13.
 NSaved=13 IEnMin=13 EnMin= -559.478651059552     IErMin=13 ErrMin= 1.54D-07
 ErrMax= 1.54D-07  0.00D+00 EMaxC= 1.00D-01 BMatC= 1.94D-11 BMatP= 3.25D-10
 IDIUse=1 WtCom= 1.00D+00 WtEn= 0.00D+00
 Coeff-Com: -0.470D-05 0.897D-05-0.316D-04 0.949D-05-0.135D-04-0.638D-04
 Coeff-Com: -0.153D-02-0.222D-02-0.659D-02-0.682D-02 0.111D+00 0.266D+00
 Coeff-Com:  0.640D+00
 Coeff:     -0.470D-05 0.897D-05-0.316D-04 0.949D-05-0.135D-04-0.638D-04
 Coeff:     -0.153D-02-0.222D-02-0.659D-02-0.682D-02 0.111D+00 0.266D+00
 Coeff:      0.640D+00
 Gap=     0.169 Goal=   None    Shift=    0.000
 RMSDP=1.15D-08 MaxDP=1.04D-06 DE=-2.62D-10 OVMax= 8.39D-07

 Cycle  14  Pass 1  IDiag  1:
 RMSU=  4.26D-09    CP:  9.96D-01  6.80D-01  6.21D-01  2.85D-01  7.94D-01
                    CP:  7.17D-01  8.46D-01  7.59D-01  8.72D-01  5.82D-01
                    CP:  9.77D-01  8.04D-01  8.80D-01
 E= -559.478651059556     Delta-E=       -0.000000000004 Rises=F Damp=F
 DIIS: error= 4.10D-08 at cycle  14 NSaved=  14.
 NSaved=14 IEnMin=14 EnMin= -559.478651059556     IErMin=14 ErrMin= 4.10D-08
 ErrMax= 4.10D-08  0.00D+00 EMaxC= 1.00D-01 BMatC= 1.79D-12 BMatP= 1.94D-11
 IDIUse=1 WtCom= 1.00D+00 WtEn= 0.00D+00
 Coeff-Com: -0.126D-05 0.240D-05-0.194D-05 0.724D-06 0.893D-05-0.158D-05
 Coeff-Com: -0.307D-03-0.649D-03-0.407D-02-0.637D-02 0.451D-02 0.422D-01
 Coeff-Com:  0.334D+00 0.630D+00
 Coeff:     -0.126D-05 0.240D-05-0.194D-05 0.724D-06 0.893D-05-0.158D-05
 Coeff:     -0.307D-03-0.649D-03-0.407D-02-0.637D-02 0.451D-02 0.422D-01
 Coeff:      0.334D+00 0.630D+00
 Gap=     0.169 Goal=   None    Shift=    0.000
 RMSDP=1.81D-09 MaxDP=1.34D-07 DE=-4.32D-12 OVMax= 3.28D-07

 Error on total polarization charges =  0.01478
 SCF Done:  E(RB3LYP) =  -559.478651060     A.U. after   14 cycles
            NFock= 14  Conv=0.18D-08     -V/T= 2.0070
 KE= 5.556157048005D+02 PE=-2.872181992998D+03 EE= 9.707438171640D+02
 Leave Link  502 at Wed Jul 10 10:55:24 2024, MaxMem=  2684354560 cpu:           11888.3 elap:             995.7
 (Enter /mnt/data/applications/G16/g16/l601.exe)
 Copying SCF densities to generalized density rwf, IOpCl= 0 IROHF=0.

 **********************************************************************

            Population analysis using the SCF density.

 **********************************************************************

 Alpha  occ. eigenvalues --  -19.11417 -14.34799 -10.30268 -10.21459 -10.21347
 Alpha  occ. eigenvalues --  -10.19909 -10.19881 -10.18868 -10.18669 -10.18260
 Alpha  occ. eigenvalues --  -10.15557 -10.15523 -10.15254  -1.03080  -0.93157
 Alpha  occ. eigenvalues --   -0.84039  -0.81701  -0.77258  -0.72914  -0.69414
 Alpha  occ. eigenvalues --   -0.69310  -0.67280  -0.62468  -0.58952  -0.55192
 Alpha  occ. eigenvalues --   -0.51281  -0.49110  -0.48460  -0.48221  -0.47021
 Alpha  occ. eigenvalues --   -0.45948  -0.44498  -0.43498  -0.42670  -0.41571
 Alpha  occ. eigenvalues --   -0.40715  -0.40026  -0.38959  -0.37415  -0.36777
 Alpha  occ. eigenvalues --   -0.36088  -0.35120  -0.33832  -0.33062  -0.32944
 Alpha  occ. eigenvalues --   -0.27456  -0.26008  -0.25959  -0.23229
 Alpha virt. eigenvalues --   -0.06338  -0.01091   0.00793   0.03343   0.04777
 Alpha virt. eigenvalues --    0.06060   0.07280   0.07440   0.08658   0.08734
 Alpha virt. eigenvalues --    0.09012   0.09391   0.10375   0.11150   0.11751
 Alpha virt. eigenvalues --    0.13694   0.14369   0.14856   0.15497   0.15817
 Alpha virt. eigenvalues --    0.16273   0.16583   0.17276   0.17772   0.18671
 Alpha virt. eigenvalues --    0.19400   0.20267   0.20941   0.21631   0.23391
 Alpha virt. eigenvalues --    0.24212   0.25187   0.25505   0.26325   0.27475
 Alpha virt. eigenvalues --    0.28681   0.29626   0.30396   0.30962   0.31266
 Alpha virt. eigenvalues --    0.31649   0.32862   0.33013   0.34024   0.35455
 Alpha virt. eigenvalues --    0.37567   0.38226   0.38818   0.39373   0.39664
 Alpha virt. eigenvalues --    0.40583   0.41252   0.41857   0.42380   0.43003
 Alpha virt. eigenvalues --    0.43973   0.44148   0.44411   0.45688   0.45725
 Alpha virt. eigenvalues --    0.46442   0.46575   0.47189   0.47232   0.47866
 Alpha virt. eigenvalues --    0.48089   0.48403   0.49306   0.49743   0.49850
 Alpha virt. eigenvalues --    0.50335   0.51061   0.51666   0.52047   0.52222
 Alpha virt. eigenvalues --    0.52764   0.53353   0.54107   0.55151   0.55770
 Alpha virt. eigenvalues --    0.57034   0.57977   0.59175   0.59696   0.60910
 Alpha virt. eigenvalues --    0.62346   0.64325   0.65255   0.66858   0.69170
 Alpha virt. eigenvalues --    0.70094   0.71546   0.72676   0.73357   0.73812
 Alpha virt. eigenvalues --    0.74474   0.75132   0.75527   0.77850   0.78291
 Alpha virt. eigenvalues --    0.78991   0.80014   0.81139   0.82408   0.84397
 Alpha virt. eigenvalues --    0.85013   0.86553   0.87518   0.88195   0.88781
 Alpha virt. eigenvalues --    0.89156   0.90106   0.90625   0.91665   0.91703
 Alpha virt. eigenvalues --    0.93323   0.93965   0.94095   0.96018   0.96140
 Alpha virt. eigenvalues --    0.97096   0.97686   0.98598   0.99344   1.00591
 Alpha virt. eigenvalues --    1.02406   1.03276   1.04226   1.04723   1.05184
 Alpha virt. eigenvalues --    1.05649   1.06226   1.07787   1.08663   1.09866
 Alpha virt. eigenvalues --    1.10314   1.10803   1.11741   1.12912   1.13894
 Alpha virt. eigenvalues --    1.14577   1.15257   1.15486   1.16711   1.17709
 Alpha virt. eigenvalues --    1.18860   1.19186   1.20020   1.20288   1.21741
 Alpha virt. eigenvalues --    1.22370   1.23268   1.24574   1.25793   1.26123
 Alpha virt. eigenvalues --    1.26502   1.27035   1.27828   1.28667   1.29130
 Alpha virt. eigenvalues --    1.29999   1.30352   1.31168   1.31984   1.32559
 Alpha virt. eigenvalues --    1.33369   1.33729   1.33992   1.34408   1.35293
 Alpha virt. eigenvalues --    1.36323   1.38317   1.38948   1.39916   1.40874
 Alpha virt. eigenvalues --    1.42190   1.42534   1.44121   1.44510   1.45526
 Alpha virt. eigenvalues --    1.47366   1.47938   1.49165   1.49908   1.50705
 Alpha virt. eigenvalues --    1.51367   1.52009   1.53048   1.54160   1.55814
 Alpha virt. eigenvalues --    1.56342   1.57041   1.58070   1.59391   1.59683
 Alpha virt. eigenvalues --    1.60387   1.63391   1.63565   1.63641   1.67042
 Alpha virt. eigenvalues --    1.67590   1.68789   1.70425   1.71266   1.72790
 Alpha virt. eigenvalues --    1.73589   1.74978   1.78596   1.81756   1.83541
 Alpha virt. eigenvalues --    1.88661   1.91613   1.94321   2.01023   2.06584
 Alpha virt. eigenvalues --    2.11319   2.13807   2.17644   2.19874   2.22947
 Alpha virt. eigenvalues --    2.23391   2.24333   2.25412   2.26366   2.29006
 Alpha virt. eigenvalues --    2.29461   2.30816   2.31800   2.33010   2.33444
 Alpha virt. eigenvalues --    2.36188   2.36753   2.37124   2.39630   2.42224
 Alpha virt. eigenvalues --    2.43119   2.44810   2.45330   2.46526   2.47785
 Alpha virt. eigenvalues --    2.48491   2.49551   2.50600   2.51272   2.52608
 Alpha virt. eigenvalues --    2.53841   2.54279   2.55987   2.56926   2.57725
 Alpha virt. eigenvalues --    2.59114   2.59657   2.60114   2.60654   2.62403
 Alpha virt. eigenvalues --    2.62981   2.63332   2.63637   2.67768   2.68164
 Alpha virt. eigenvalues --    2.68765   2.69288   2.70771   2.70892   2.72109
 Alpha virt. eigenvalues --    2.73999   2.75333   2.75912   2.76535   2.77236
 Alpha virt. eigenvalues --    2.78876   2.80121   2.80556   2.82228   2.82721
 Alpha virt. eigenvalues --    2.83278   2.83828   2.84393   2.85602   2.86474
 Alpha virt. eigenvalues --    2.86872   2.88023   2.88969   2.89356   2.90844
 Alpha virt. eigenvalues --    2.91622   2.92924   2.93286   2.95548   2.96130
 Alpha virt. eigenvalues --    2.96999   2.97828   2.98848   2.99243   2.99559
 Alpha virt. eigenvalues --    3.00934   3.01675   3.02056   3.02858   3.03445
 Alpha virt. eigenvalues --    3.03518   3.04345   3.05049   3.05145   3.06003
 Alpha virt. eigenvalues --    3.06698   3.07918   3.08286   3.09129   3.10237
 Alpha virt. eigenvalues --    3.10667   3.12060   3.12526   3.13107   3.13886
 Alpha virt. eigenvalues --    3.14955   3.15547   3.16472   3.17010   3.17706
 Alpha virt. eigenvalues --    3.18025   3.18421   3.19246   3.20158   3.21219
 Alpha virt. eigenvalues --    3.21802   3.22440   3.23025   3.23922   3.24363
 Alpha virt. eigenvalues --    3.26133   3.27389   3.28952   3.29706   3.30293
 Alpha virt. eigenvalues --    3.31142   3.32086   3.32605   3.34030   3.35132
 Alpha virt. eigenvalues --    3.35435   3.36256   3.36843   3.38447   3.38814
 Alpha virt. eigenvalues --    3.40785   3.41049   3.41359   3.42345   3.42471
 Alpha virt. eigenvalues --    3.43355   3.45751   3.46885   3.47870   3.48473
 Alpha virt. eigenvalues --    3.49031   3.50394   3.51908   3.52274   3.53188
 Alpha virt. eigenvalues --    3.54496   3.55464   3.56230   3.57831   3.58250
 Alpha virt. eigenvalues --    3.59659   3.60752   3.61642   3.62327   3.63041
 Alpha virt. eigenvalues --    3.64661   3.65234   3.66604   3.67124   3.68701
 Alpha virt. eigenvalues --    3.68814   3.70484   3.71055   3.71914   3.72760
 Alpha virt. eigenvalues --    3.73457   3.74053   3.74622   3.76520   3.77316
 Alpha virt. eigenvalues --    3.78888   3.79803   3.80705   3.81008   3.82415
 Alpha virt. eigenvalues --    3.83429   3.84394   3.86020   3.86760   3.88460
 Alpha virt. eigenvalues --    3.88691   3.89925   3.91186   3.91825   3.93439
 Alpha virt. eigenvalues --    3.93578   3.95127   3.95624   3.97250   3.98819
 Alpha virt. eigenvalues --    3.99595   4.00726   4.01680   4.02139   4.02509
 Alpha virt. eigenvalues --    4.03227   4.04119   4.05825   4.06080   4.06988
 Alpha virt. eigenvalues --    4.07752   4.08394   4.09508   4.10233   4.10813
 Alpha virt. eigenvalues --    4.12234   4.12601   4.13706   4.15060   4.15541
 Alpha virt. eigenvalues --    4.15929   4.17404   4.18480   4.18891   4.19575
 Alpha virt. eigenvalues --    4.19780   4.20898   4.21264   4.23471   4.24157
 Alpha virt. eigenvalues --    4.24840   4.25627   4.26935   4.27201   4.28202
 Alpha virt. eigenvalues --    4.29622   4.32022   4.32157   4.33107   4.33704
 Alpha virt. eigenvalues --    4.34907   4.36138   4.36832   4.37699   4.38246
 Alpha virt. eigenvalues --    4.40846   4.41748   4.43356   4.43765   4.46021
 Alpha virt. eigenvalues --    4.48465   4.50015   4.51564   4.52032   4.56286
 Alpha virt. eigenvalues --    4.57235   4.58832   4.61052   4.62754   4.63772
 Alpha virt. eigenvalues --    4.65263   4.66467   4.67761   4.68145   4.69043
 Alpha virt. eigenvalues --    4.70877   4.75295   4.76583   4.78876   4.81043
 Alpha virt. eigenvalues --    4.83252   4.83637   4.85178   4.85789   4.88073
 Alpha virt. eigenvalues --    4.88727   4.89931   4.90186   4.92311   4.93058
 Alpha virt. eigenvalues --    4.94905   4.95670   4.98021   4.99114   5.00193
 Alpha virt. eigenvalues --    5.02877   5.03269   5.05393   5.07183   5.10299
 Alpha virt. eigenvalues --    5.12279   5.13670   5.15766   5.16554   5.18149
 Alpha virt. eigenvalues --    5.20271   5.20323   5.20924   5.21964   5.22997
 Alpha virt. eigenvalues --    5.23416   5.25489   5.27868   5.27943   5.28649
 Alpha virt. eigenvalues --    5.29372   5.30393   5.30745   5.31386   5.32313
 Alpha virt. eigenvalues --    5.34015   5.35748   5.37469   5.37882   5.38479
 Alpha virt. eigenvalues --    5.38970   5.40264   5.40413   5.42336   5.42576
 Alpha virt. eigenvalues --    5.44064   5.45968   5.46892   5.48550   5.49208
 Alpha virt. eigenvalues --    5.50530   5.53039   5.53922   5.54554   5.57384
 Alpha virt. eigenvalues --    5.59038   5.59892   5.62178   5.65001   5.67744
 Alpha virt. eigenvalues --    5.71765   5.72930   5.76221   5.77874   5.78913
 Alpha virt. eigenvalues --    5.90529   5.91599   5.92743   5.94538   5.94762
 Alpha virt. eigenvalues --    5.95938   5.96944   6.01014   6.01458   6.03556
 Alpha virt. eigenvalues --    6.04998   6.06933   6.11648   6.24860   6.36929
 Alpha virt. eigenvalues --    6.44713   6.57927   6.58821   6.82323   6.99717
 Alpha virt. eigenvalues --    7.03482   8.30677   9.99878  10.40447  11.78091
 Alpha virt. eigenvalues --   12.10511  12.67478  12.92425  12.96728  13.37924
 Alpha virt. eigenvalues --   13.50364  14.08297  14.19795  14.24575
          Condensed to atoms (all electrons):
               1          2          3          4          5          6
     1  C    5.044080   0.422319   0.387136   0.305593  -0.031656  -0.058051
     2  H    0.422319   0.543523  -0.036536  -0.036356  -0.007854   0.006282
     3  H    0.387136  -0.036536   0.692048  -0.051982   0.010277  -0.045976
     4  C    0.305593  -0.036356  -0.051982   4.918607   0.404537   0.451751
     5  H   -0.031656  -0.007854   0.010277   0.404537   0.578471  -0.041104
     6  H   -0.058051   0.006282  -0.045976   0.451751  -0.041104   0.609346
     7  C   -0.038019   0.003708   0.007719   0.312236  -0.023756  -0.039718
     8  H    0.007472  -0.000255  -0.001152  -0.028800  -0.003745  -0.005492
     9  H   -0.002285   0.000329  -0.000655  -0.031182  -0.008920   0.008070
    10  C   -0.061317   0.002064   0.002148   0.000663   0.000176   0.001424
    11  N    0.245866  -0.016731  -0.088233  -0.031290   0.001984   0.008544
    12  H   -0.041294  -0.000582  -0.032659   0.008115  -0.000544   0.001017
    13  O    0.002982  -0.000197  -0.000987  -0.000542   0.000015   0.000021
    14  C    0.014614  -0.001511   0.001071  -0.038075   0.007265  -0.004342
    15  C   -0.003330   0.000209  -0.000216   0.000515  -0.000302   0.002090
    16  C   -0.000207   0.000005  -0.000040  -0.000097  -0.000002   0.000111
    17  H   -0.000006   0.000000   0.000002  -0.000011   0.000001   0.000003
    18  C    0.000003   0.000000  -0.000013   0.000061  -0.000002  -0.000001
    19  C    0.000001  -0.000000   0.000000  -0.000020   0.000001  -0.000002
    20  H   -0.000001  -0.000000  -0.000001  -0.000012  -0.000001   0.000028
    21  H   -0.000000  -0.000000  -0.000000   0.000001  -0.000000   0.000000
    22  H    0.000000   0.000000  -0.000000   0.000002  -0.000000  -0.000001
    23  C   -0.000000   0.000000   0.000000   0.000000   0.000000   0.000000
    24  H   -0.000000   0.000000   0.000000  -0.000000   0.000000  -0.000000
    25  H    0.000000   0.000000  -0.000000  -0.000000  -0.000000  -0.000000
    26  H    0.000000  -0.000000   0.000000  -0.000000  -0.000000  -0.000000
    27  C    0.000023  -0.000000   0.000010  -0.000024  -0.000001  -0.000059
    28  H    0.000031  -0.000000   0.000031  -0.000032   0.000000  -0.000030
    29  H   -0.000166   0.000002  -0.000043   0.000208   0.000001   0.000379
    30  H    0.000001  -0.000000   0.000000  -0.000004   0.000000  -0.000002
               7          8          9         10         11         12
     1  C   -0.038019   0.007472  -0.002285  -0.061317   0.245866  -0.041294
     2  H    0.003708  -0.000255   0.000329   0.002064  -0.016731  -0.000582
     3  H    0.007719  -0.001152  -0.000655   0.002148  -0.088233  -0.032659
     4  C    0.312236  -0.028800  -0.031182   0.000663  -0.031290   0.008115
     5  H   -0.023756  -0.003745  -0.008920   0.000176   0.001984  -0.000544
     6  H   -0.039718  -0.005492   0.008070   0.001424   0.008544   0.001017
     7  C    4.858244   0.414478   0.412083  -0.019499  -0.001430  -0.001744
     8  H    0.414478   0.568456  -0.029308   0.000130  -0.000452   0.000169
     9  H    0.412083  -0.029308   0.587318   0.002151  -0.000254   0.000011
    10  C   -0.019499   0.000130   0.002151   4.598314   0.457936  -0.017284
    11  N   -0.001430  -0.000452  -0.000254   0.457936   6.494008   0.390894
    12  H   -0.001744   0.000169   0.000011  -0.017284   0.390894   0.536447
    13  O    0.003784  -0.000219   0.000196   0.790322  -0.111436   0.004582
    14  C    0.319548  -0.041684  -0.052205   0.096717  -0.155448   0.010951
    15  C   -0.057873   0.004908  -0.000248  -0.094553   0.002954   0.000001
    16  C    0.002181   0.001277   0.000559   0.005533   0.000450  -0.000028
    17  H   -0.000121  -0.000147   0.000231   0.000454   0.000008  -0.000003
    18  C    0.000047  -0.000051  -0.000104  -0.001524   0.000000   0.000015
    19  C    0.000214   0.000026  -0.000009  -0.000070  -0.000000  -0.000000
    20  H   -0.000101   0.000645   0.000034   0.000003  -0.000001   0.000001
    21  H   -0.000018   0.000020   0.000003  -0.000000  -0.000000   0.000000
    22  H   -0.000016   0.000018  -0.000000   0.000004  -0.000000   0.000000
    23  C   -0.000008   0.000002   0.000002   0.000057   0.000000  -0.000000
    24  H    0.000003  -0.000002  -0.000000   0.000002   0.000000  -0.000000
    25  H    0.000001  -0.000000  -0.000000  -0.000001   0.000000  -0.000000
    26  H   -0.000001  -0.000000   0.000000   0.000000  -0.000000  -0.000000
    27  C    0.000224   0.000050  -0.000025   0.000307  -0.000037   0.000013
    28  H    0.000061  -0.000011  -0.000010   0.001372  -0.000034  -0.000052
    29  H   -0.000544  -0.000129   0.000090   0.000094   0.000135   0.000031
    30  H    0.000004  -0.000011  -0.000001   0.000027  -0.000000  -0.000002
              13         14         15         16         17         18
     1  C    0.002982   0.014614  -0.003330  -0.000207  -0.000006   0.000003
     2  H   -0.000197  -0.001511   0.000209   0.000005   0.000000   0.000000
     3  H   -0.000987   0.001071  -0.000216  -0.000040   0.000002  -0.000013
     4  C   -0.000542  -0.038075   0.000515  -0.000097  -0.000011   0.000061
     5  H    0.000015   0.007265  -0.000302  -0.000002   0.000001  -0.000002
     6  H    0.000021  -0.004342   0.002090   0.000111   0.000003  -0.000001
     7  C    0.003784   0.319548  -0.057873   0.002181  -0.000121   0.000047
     8  H   -0.000219  -0.041684   0.004908   0.001277  -0.000147  -0.000051
     9  H    0.000196  -0.052205  -0.000248   0.000559   0.000231  -0.000104
    10  C    0.790322   0.096717  -0.094553   0.005533   0.000454  -0.001524
    11  N   -0.111436  -0.155448   0.002954   0.000450   0.000008   0.000000
    12  H    0.004582   0.010951   0.000001  -0.000028  -0.000003   0.000015
    13  O    7.843938  -0.160574   0.005210   0.005516   0.000498  -0.000690
    14  C   -0.160574   5.657429   0.464786  -0.082990   0.003162  -0.001072
    15  C    0.005210   0.464786   5.156400   0.648246  -0.035490  -0.069672
    16  C    0.005516  -0.082990   0.648246   5.035392   0.402026   0.346318
    17  H    0.000498   0.003162  -0.035490   0.402026   0.505244  -0.039814
    18  C   -0.000690  -0.001072  -0.069672   0.346318  -0.039814   4.883674
    19  C   -0.000004  -0.000367  -0.006509  -0.044770   0.000522   0.349292
    20  H   -0.000002   0.000885   0.003942  -0.005296   0.000153  -0.032041
    21  H   -0.000000  -0.000049  -0.000094  -0.001605   0.001514  -0.035079
    22  H    0.000000  -0.000023   0.000564   0.008006  -0.000350  -0.035270
    23  C    0.000013   0.000146   0.003167  -0.053182  -0.003116   0.342900
    24  H   -0.000002  -0.000157  -0.000504   0.001426   0.000317  -0.038137
    25  H    0.000000  -0.000003  -0.000157   0.007747  -0.000195  -0.032965
    26  H   -0.000000   0.000047   0.000433  -0.006350   0.004224  -0.032238
    27  C    0.000067  -0.003426  -0.020390  -0.049192   0.006139   0.346581
    28  H    0.002175  -0.002493   0.001542  -0.001368  -0.000095  -0.036554
    29  H   -0.000278   0.001295   0.005830  -0.008007   0.000105  -0.029571
    30  H    0.000014  -0.000082   0.000648   0.008093  -0.000334  -0.034164
              19         20         21         22         23         24
     1  C    0.000001  -0.000001  -0.000000   0.000000  -0.000000  -0.000000
     2  H   -0.000000  -0.000000  -0.000000   0.000000   0.000000   0.000000
     3  H    0.000000  -0.000001  -0.000000  -0.000000   0.000000   0.000000
     4  C   -0.000020  -0.000012   0.000001   0.000002   0.000000  -0.000000
     5  H    0.000001  -0.000001  -0.000000  -0.000000   0.000000   0.000000
     6  H   -0.000002   0.000028   0.000000  -0.000001   0.000000  -0.000000
     7  C    0.000214  -0.000101  -0.000018  -0.000016  -0.000008   0.000003
     8  H    0.000026   0.000645   0.000020   0.000018   0.000002  -0.000002
     9  H   -0.000009   0.000034   0.000003  -0.000000   0.000002  -0.000000
    10  C   -0.000070   0.000003  -0.000000   0.000004   0.000057   0.000002
    11  N   -0.000000  -0.000001  -0.000000  -0.000000   0.000000   0.000000
    12  H   -0.000000   0.000001   0.000000   0.000000  -0.000000  -0.000000
    13  O   -0.000004  -0.000002  -0.000000   0.000000   0.000013  -0.000002
    14  C   -0.000367   0.000885  -0.000049  -0.000023   0.000146  -0.000157
    15  C   -0.006509   0.003942  -0.000094   0.000564   0.003167  -0.000504
    16  C   -0.044770  -0.005296  -0.001605   0.008006  -0.053182   0.001426
    17  H    0.000522   0.000153   0.001514  -0.000350  -0.003116   0.000317
    18  C    0.349292  -0.032041  -0.035079  -0.035270   0.342900  -0.038137
    19  C    4.918599   0.401480   0.402120   0.403530  -0.056196   0.008701
    20  H    0.401480   0.573137  -0.027859  -0.028128   0.008732  -0.000544
    21  H    0.402120  -0.027859   0.584582  -0.028680  -0.005207  -0.000253
    22  H    0.403530  -0.028128  -0.028680   0.583803  -0.005558  -0.000239
    23  C   -0.056196   0.008732  -0.005207  -0.005558   4.934499   0.403642
    24  H    0.008701  -0.000544  -0.000253  -0.000239   0.403642   0.582677
    25  H   -0.004359  -0.000151  -0.000397   0.002990   0.405506  -0.027422
    26  H   -0.006008  -0.000149   0.004442  -0.000194   0.405098  -0.030038
    27  C   -0.057452  -0.004863   0.008680  -0.005839  -0.054996  -0.005429
    28  H    0.008133  -0.000220  -0.000575  -0.000078  -0.005977   0.004284
    29  H   -0.005649   0.003984  -0.000112  -0.000201   0.008900  -0.000121
    30  H   -0.004069  -0.000196  -0.000195   0.002581  -0.006300   0.000000
              25         26         27         28         29         30
     1  C    0.000000   0.000000   0.000023   0.000031  -0.000166   0.000001
     2  H    0.000000  -0.000000  -0.000000  -0.000000   0.000002  -0.000000
     3  H   -0.000000   0.000000   0.000010   0.000031  -0.000043   0.000000
     4  C   -0.000000  -0.000000  -0.000024  -0.000032   0.000208  -0.000004
     5  H   -0.000000  -0.000000  -0.000001   0.000000   0.000001   0.000000
     6  H   -0.000000  -0.000000  -0.000059  -0.000030   0.000379  -0.000002
     7  C    0.000001  -0.000001   0.000224   0.000061  -0.000544   0.000004
     8  H   -0.000000  -0.000000   0.000050  -0.000011  -0.000129  -0.000011
     9  H   -0.000000   0.000000  -0.000025  -0.000010   0.000090  -0.000001
    10  C   -0.000001   0.000000   0.000307   0.001372   0.000094   0.000027
    11  N    0.000000  -0.000000  -0.000037  -0.000034   0.000135  -0.000000
    12  H   -0.000000  -0.000000   0.000013  -0.000052   0.000031  -0.000002
    13  O    0.000000  -0.000000   0.000067   0.002175  -0.000278   0.000014
    14  C   -0.000003   0.000047  -0.003426  -0.002493   0.001295  -0.000082
    15  C   -0.000157   0.000433  -0.020390   0.001542   0.005830   0.000648
    16  C    0.007747  -0.006350  -0.049192  -0.001368  -0.008007   0.008093
    17  H   -0.000195   0.004224   0.006139  -0.000095   0.000105  -0.000334
    18  C   -0.032965  -0.032238   0.346581  -0.036554  -0.029571  -0.034164
    19  C   -0.004359  -0.006008  -0.057452   0.008133  -0.005649  -0.004069
    20  H   -0.000151  -0.000149  -0.004863  -0.000220   0.003984  -0.000196
    21  H   -0.000397   0.004442   0.008680  -0.000575  -0.000112  -0.000195
    22  H    0.002990  -0.000194  -0.005839  -0.000078  -0.000201   0.002581
    23  C    0.405506   0.405098  -0.054996  -0.005977   0.008900  -0.006300
    24  H   -0.027422  -0.030038  -0.005429   0.004284  -0.000121   0.000000
    25  H    0.578816  -0.029251  -0.006408  -0.000089  -0.000197   0.003700
    26  H   -0.029251   0.582140   0.008619  -0.000196  -0.000510  -0.000131
    27  C   -0.006408   0.008619   4.954394   0.400930   0.404948   0.402989
    28  H   -0.000089  -0.000196   0.400930   0.579496  -0.030756  -0.025672
    29  H   -0.000197  -0.000510   0.404948  -0.030756   0.579870  -0.030897
    30  H    0.003700  -0.000131   0.402989  -0.025672  -0.030897   0.582924
 Mulliken charges:
               1
     1  C   -0.193789
     2  H    0.121582
     3  H    0.158052
     4  C   -0.183864
     5  H    0.115158
     6  H    0.105712
     7  C   -0.151687
     8  H    0.113808
     9  H    0.114129
    10  C    0.234348
    11  N   -0.197435
    12  H    0.141948
    13  O   -0.384401
    14  C   -0.033415
    15  C   -0.012104
    16  C   -0.219753
    17  H    0.155081
    18  C    0.150069
    19  C   -0.307134
    20  H    0.106544
    21  H    0.098762
    22  H    0.103081
    23  C   -0.322126
    24  H    0.101798
    25  H    0.102836
    26  H    0.100063
    27  C   -0.325836
    28  H    0.106188
    29  H    0.101309
    30  H    0.101078
 Sum of Mulliken charges =  -0.00000
 Mulliken charges with hydrogens summed into heavy atoms:
               1
     1  C    0.085845
     4  C    0.037006
     7  C    0.076250
    10  C    0.234348
    11  N   -0.055487
    13  O   -0.384401
    14  C   -0.033415
    15  C   -0.012104
    16  C   -0.064672
    18  C    0.150069
    19  C    0.001252
    23  C   -0.017430
    27  C   -0.017261
 Electronic spatial extent (au):  <R**2>=          51736.5893
 Charge=             -0.0000 electrons
 Dipole moment (field-independent basis, Debye):
    X=              4.0478    Y=              0.0985    Z=              4.4793  Tot=              6.0380
 Quadrupole moment (field-independent basis, Debye-Ang):
   XX=           -151.0804   YY=            -72.8707   ZZ=            -47.2039
   XY=             10.7678   XZ=            -31.8420   YZ=             20.5308
 Traceless Quadrupole moment (field-independent basis, Debye-Ang):
   XX=            -60.6954   YY=             17.5143   ZZ=             43.1811
   XY=             10.7678   XZ=            -31.8420   YZ=             20.5308
 Octapole moment (field-independent basis, Debye-Ang**2):
  XXX=           3237.4403  YYY=          -1085.2524  ZZZ=           -990.6079  XYY=            721.8398
  XXY=           -576.1481  XXZ=           -168.4937  XZZ=            460.0882  YZZ=           -229.9802
  YYZ=           -282.7346  XYZ=           -174.3295
 Hexadecapole moment (field-independent basis, Debye-Ang**3):
 XXXX=         -56815.8911 YYYY=         -11342.8165 ZZZZ=         -12598.1736 XXXY=          13748.9336
 XXXZ=          10282.2869 YYYX=          10548.2833 YYYZ=          -5456.3426 ZZZX=           9855.7061
 ZZZY=          -5138.5224 XXYY=          -9286.5410 XXZZ=          -6952.1488 YYZZ=          -3487.4500
[...]
 5478,-0.04086848,-0.16230129,-0.12263382,0.04544692,0.17357322,0.00003
 102,0.00000755,-0.00000368,-0.00000895,-0.00000449,0.00000002,-0.00001
 015,0.00000331,0.00000137,-0.00002930,-0.00002422,0.00000294,-0.000011
 65,0.00001165,0.00000305,0.00000375,0.00000131,-0.00000254,0.00001042,
 0.00006898,-0.00000839,-0.00000437,-0.00000212,-0.00000630,-0.00001306
 ,-0.00000335,0.00000206,0.00000665,-0.00012321,-0.00002283,-0.00005660
 ,0.00007282,0.00005056,-0.00000809,-0.00000404,-0.00000066,-0.00002924
 ,-0.00000317,-0.00003995,-0.00001457,0.00008405,0.00008361,-0.00005951
 ,-0.00012310,0.00029634,0.00040557,0.00067997,0.00057764,-0.00007539,0
 .00000296,0.00000762,0.00037650,-0.00021628,-0.00206702,-0.00090731,0.
 00038579,0.00087028,-0.00015610,-0.00040004,0.00019608,0.00013482,-0.0
 0015294,-0.00003780,0.00013844,0.00016216,0.00044276,-0.04402344,-0.12
 300213,-0.17875110,0.04838541,0.13586566,0.19123617,0.00012218,0.00000
 302,-0.00002106,-0.00003849,-0.00001203,-0.00000034,-0.00002297,0.0000
 2224,0.00001463,-0.00005676,-0.00011871,0.00000145,-0.00005072,0.00004
 293,0.00000715,0.00002134,0.00001781,-0.00000831,0.00010707,-0.0001914
 5,0.00039357,0.00000943,0.00002248,-0.00000849,-0.00022482,-0.00001673
 ,0.00001960,-0.00061753,-0.00027390,-0.00102882,-0.00000165,0.00032485
 ,0.00036093,-0.00006173,-0.00002033,0.00004488,0.00031686,0.00022207,0
 .00029294,0.00019364,0.00084556,0.00066163,0.00028548,-0.00154141,0.00
 026348,-0.00658692,0.00029709,-0.00061929,0.00026917,-0.00001340,-0.00
 000136,-0.01335647,-0.01111904,0.02835253,0.00153776,0.00048970,0.0012
 3161,0.00028329,0.00040228,-0.00012516,-0.00003633,-0.00003892,-0.0001
 2395,0.00003211,-0.00018565,-0.00075413,-0.07570717,-0.02851906,0.0770
 2816,0.00226593,0.00348239,-0.00679715,0.08480705,0.00001808,-0.000000
 18,-0.00000462,-0.00000499,-0.00000223,0.00000068,-0.00000340,0.000003
 29,0.00000209,-0.00002204,-0.00001993,0.00000141,-0.00000965,0.0000100
 2,0.00000282,0.00000301,0.00000106,-0.00000167,0.00002765,0.00004654,-
 0.00000333,0.00000171,-0.00000092,-0.00000385,-0.00001223,-0.00000060,
 0.00000404,-0.00008473,-0.00011283,-0.00005442,0.00000508,0.00005170,0
 .00004514,-0.00000940,0.00000280,0.00000088,0.00004132,0.00004780,0.00
 003315,0.00007450,0.00013821,0.00012861,-0.00016663,-0.00001456,0.0001
 9300,-0.00114271,0.00060637,-0.00015264,0.00013869,0.00019746,-0.00027
 010,-0.00095679,-0.00260914,0.00318631,0.00008036,-0.00003088,0.000651
 09,0.00015300,0.00004031,-0.00014470,-0.00002564,-0.00003621,0.0000340
 9,-0.00018111,0.00002634,-0.00028503,-0.02894804,-0.07430454,0.0734322
 6,0.00820976,0.00801762,-0.01877946,0.03256657,0.07601094,-0.00003417,
 0.00000200,0.00000353,0.00001204,0.00000456,-0.00000077,0.00000702,-0.
 00000693,-0.00000480,0.00004311,0.00004467,-0.00000552,0.00001937,-0.0
 0002086,-0.00000542,-0.00000709,-0.00000355,0.00000409,-0.00004658,-0.
 00006931,-0.00004761,-0.00000786,-0.00000135,0.00000500,0.00004108,0.0
 0000182,-0.00001053,0.00012236,0.00022613,0.00016813,0.00001495,-0.000
 10431,-0.00008497,0.00001339,-0.00000589,0.00000015,-0.00006489,-0.000
 07332,-0.00008459,0.00004674,-0.00016613,-0.00016788,-0.00019031,0.000
 57209,0.00066037,0.00085131,-0.00053295,0.00076710,-0.00022743,-0.0000
 8841,-0.00004172,-0.00121762,-0.00062087,0.00013870,-0.00055134,-0.000
 28651,0.00070271,0.00011315,-0.00000314,0.00027188,0.00002052,-0.00003
 386,-0.00002585,-0.00001886,0.00019717,0.00034401,0.07851930,0.0739445
 2,-0.24761215,0.00728659,0.00781983,-0.01872730,-0.08613793,-0.0819855
 2,0.26835741,-0.00000683,-0.00000101,0.00000031,0.00000182,0.00000085,
 0.00000071,0.00000103,-0.00000088,-0.00000117,0.00001168,0.00000910,-0
 .00000708,0.00000296,-0.00000517,0.00000025,-0.00000017,-0.00000452,0.
 00000044,-0.00002379,-0.00001872,-0.00001318,-0.00000184,0.00000617,0.
 00000384,0.00000419,0.00000118,0.00000030,0.00003387,0.00000400,-0.000
 02386,-0.00000420,-0.00002372,-0.00002029,0.00000573,-0.00000310,-0.00
 000327,0.00000939,-0.00001406,-0.00000747,-0.00005861,-0.00006826,-0.0
 0008582,0.00018579,-0.00022302,0.00003731,0.00113427,0.00115534,-0.000
 91914,-0.00019881,-0.00056826,0.00064900,-0.01471071,0.02893607,-0.007
 04570,0.00141130,0.00134788,0.00066738,0.00021758,-0.00018365,0.000335
 62,0.00007728,-0.00074728,-0.00025232,-0.00004183,-0.00010653,-0.00006
 143,-0.09504735,0.09677155,-0.02397519,0.00325695,-0.00694258,0.002677
 55,0.00491961,-0.01033861,0.00151951,0.10599009,-0.00002243,-0.0000015
 0,0.00000541,0.00000720,0.00000288,-0.00000088,0.00000400,-0.00000391,
 -0.00000206,0.00000910,0.00001761,0.00000196,0.00000930,-0.00000742,-0
 .00000116,-0.00000377,-0.00000189,0.00000029,-0.00001230,0.00001761,-0
 .00006055,-0.00000175,-0.00000507,0.00000451,0.00003714,0.00000362,-0.
 00000140,0.00007450,0.00007179,0.00017636,0.00001036,-0.00005558,-0.00
 005918,0.00000901,0.00000283,-0.00000349,-0.00004682,-0.00003362,-0.00
 006157,-0.00003421,-0.00006651,-0.00007869,-0.00004383,0.00013465,-0.0
 0016604,-0.00041813,0.00053181,0.00011612,0.00012964,0.00007646,-0.000
 21568,-0.00194001,0.00236878,-0.00107034,-0.00048481,0.00072846,-0.000
 09919,0.00012453,0.00024349,0.00005588,0.00001242,0.00032051,0.0001812
 7,0.00002488,-0.00004502,-0.00004094,0.09889432,-0.24522727,0.04866864
 ,0.00866989,-0.01776237,0.00513211,0.00365677,-0.00845695,0.00169387,-
 0.10823678,0.26548611,0.00001497,-0.00000122,-0.00000265,-0.00000469,-
 0.00000189,0.00000020,-0.00000288,0.00000277,0.00000184,-0.00001292,-0
 .00001554,-0.00000072,-0.00000744,0.00000761,0.00000187,0.00000239,0.0
 0000173,-0.00000079,0.00001575,0.00001693,0.00002383,0.,0.00000150,-0.
 00000580,-0.00001909,-0.00000333,0.00000033,-0.00008680,-0.00009112,-0
 .00010287,-0.00000252,0.00004327,0.00004165,-0.00000626,0.00000070,0.0
 0000219,0.00005590,0.00004038,0.00002875,0.00001614,0.00006096,0.00008
 050,-0.00000713,-0.00005775,0.00002451,0.00048692,-0.00081279,0.000160
 07,0.00009404,0.00007064,0.00002886,-0.00035024,0.00108817,-0.00229598
 ,-0.00007769,0.00063052,0.00007325,0.00012432,-0.00009545,-0.00001153,
 -0.00014964,-0.00021488,0.00003904,-0.00002394,0.00005212,-0.00001432,
 -0.02433927,0.04865838,-0.05910420,0.01087981,-0.01986690,0.00570426,-
 0.01309749,0.02466412,-0.00527478,0.02694894,-0.05401904,0.05940177,0.
 00012233,0.00000353,-0.00002297,-0.00003398,-0.00001442,-0.00000379,-0
 .00002085,0.00001138,0.00000502,-0.00009070,-0.00007246,-0.00003239,-0
 .00004184,0.00004143,0.00000797,0.00000676,0.00002694,0.00000765,0.000
 09644,0.00008588,0.00017892,-0.00007111,-0.00003718,-0.00005862,-0.000
 13854,-0.00002638,-0.00004334,-0.00028846,-0.00054603,-0.00078485,-0.0
 0008362,0.00028451,0.00022189,-0.00003841,-0.00001155,0.00001194,0.000
 17929,0.00017078,0.00017368,-0.00011754,-0.00014672,0.00058524,0.00083
 769,-0.00157618,0.00111921,0.00424240,-0.00824707,0.00100770,-0.000167
 07,-0.00140140,0.00273429,-0.09377366,0.03727460,-0.00853782,0.0027155
 9,-0.00427716,0.00240504,0.00046169,-0.00114846,-0.00020733,0.00015720
 ,-0.00215906,-0.00127775,-0.00003277,0.00027829,0.00006178,-0.02382185
 ,0.03219908,-0.00812430,0.00163961,0.00058961,0.00026545,0.00143866,0.
 00054741,-0.00034432,-0.00647405,-0.00011224,-0.00042275,0.55290816,-0
 .00004648,0.00001577,0.00001285,0.00001233,0.00000386,-0.00000084,0.00
 000618,-0.00001073,-0.00000715,0.00006851,0.00007174,0.00001628,0.0000
 3167,-0.00004040,-0.00001187,-0.00001164,-0.00000347,0.00000760,-0.000
 00603,-0.00019734,-0.00003678,0.00001905,-0.00000615,0.00002033,0.0000
 4106,0.00002044,0.00000733,0.00053047,0.00035736,0.00036265,-0.0000367
 3,-0.00012345,-0.00016778,0.00002354,-0.00000108,-0.00001406,-0.000361
 22,-0.00023776,-0.00002558,0.00006395,-0.00060839,-0.00048723,0.000253
 80,0.00030017,-0.00013639,0.00405318,-0.01622998,0.00971456,-0.0004874
 2,0.00086552,0.00069616,0.03684153,-0.15178353,0.01802893,0.00997651,-
 0.03051626,-0.00085178,0.00063050,0.00112522,0.00121759,-0.00096635,-0
 .00182586,-0.00270698,0.00018040,0.00127828,0.00136694,0.00542164,0.00
 027633,0.00004659,-0.00123684,0.00054356,-0.00012956,-0.00084345,0.000
 22929,-0.00008930,-0.00233296,0.00127386,-0.00038223,0.04316436,0.4832
 5130,-0.00007504,0.00000401,0.00002829,0.00001815,0.00001060,-0.000001
 53,0.00001167,-0.00001229,-0.00001015,0.00003397,0.00005218,-0.0000028
 4,0.00003108,-0.00003563,-0.00000242,-0.00000849,-0.00001135,0.0000003
 0,-0.00021580,-0.00018452,0.00000199,-0.00002526,-0.00000212,0.0000724
 1,0.00006843,0.00003748,0.00003234,0.00049228,0.00065175,0.00060500,0.
 00002076,-0.00023392,-0.00017855,0.00002766,-0.00000649,-0.00000506,-0
 .00037177,-0.00024179,-0.00005906,-0.00031842,0.00029006,-0.00080843,-
 0.00077512,0.00294937,-0.00112301,-0.01160714,0.02939392,-0.01157992,0
 .00183352,0.00200078,-0.00442678,-0.00804634,0.01746797,-0.08066624,0.
 01003834,-0.02298861,0.00382682,0.00041148,0.00044188,0.00061406,-0.00
 063214,-0.00457639,-0.00325064,0.00027288,-0.00054804,0.00063663,-0.00
 302198,0.00201831,-0.00058875,-0.00032673,0.00058357,-0.00002747,0.000
 95905,-0.00053697,0.00023119,0.00002451,-0.00023677,0.00028263,-0.0116
 2874,0.02225721,0.57012130,-0.00003813,0.00000041,0.00000643,0.0000106
 6,0.00000504,-0.00000313,0.00000617,-0.00000421,-0.00000102,0.00001000
 ,0.00000410,0.00001525,0.00001464,-0.00000334,-0.00000622,0.00001419,0
 .00000272,-0.00001726,-0.00005783,-0.00000202,-0.00003630,0.00002192,0
 .00000575,0.00002420,0.00004658,0.00000848,0.00001288,0.00012828,0.000
 26049,0.00031397,0.00002377,-0.00008565,-0.00005818,0.00000806,0.,0.00
 000475,-0.00010395,-0.00005080,-0.00010221,-0.00015875,0.00019885,-0.0
 0024539,0.00024081,-0.00054112,-0.00017505,0.00016815,-0.00067782,0.00
 028359,-0.00010864,-0.00005390,0.00005383,0.00161123,0.00934375,0.0108
 3215,-0.00101878,0.00224347,-0.00065316,0.00028358,0.00019957,0.000091
 77,0.00058315,0.00073311,0.00040242,-0.00007868,-0.00012006,-0.0002474
 2,0.00094727,0.00040651,0.00089608,-0.00016120,0.00002853,-0.00024500,
 -0.00006203,0.00000437,0.00001737,0.00019333,-0.00019836,-0.00002371,-
 0.06005775,-0.03916833,-0.04158692,0.06152219,-0.00004533,-0.00000355,
 -0.00000002,0.00001571,0.00000656,-0.00000118,0.00001153,-0.00000451,-
 0.00000093,0.00000407,0.00000591,0.00001037,0.00001226,-0.00000345,-0.
 00000196,-0.00000246,0.00000051,-0.00000465,-0.00002896,0.00003442,-0.
 00002324,0.00002033,0.00000061,0.00001221,0.00004715,-0.00000542,0.000
 00335,-0.00013152,0.00024884,0.00019859,0.00007687,-0.00011660,-0.0000
 5364,0.00000809,0.00000424,0.00000854,0.00008365,-0.00001495,-0.000143
 80,-0.00023404,0.00024000,-0.00009681,-0.00023249,-0.00038455,0.000290
 53,-0.00010655,0.00111905,-0.00108074,0.00023977,0.00012972,0.00006198
 ,-0.00705864,-0.02005679,-0.02127363,0.00334020,-0.00472408,0.00290731
 ,-0.00004304,0.00028714,0.00023796,-0.00020363,-0.00143500,-0.00143921
 ,0.00011163,0.00031184,-0.00005179,-0.00145541,0.00091720,-0.00046700,
 0.00071610,0.00038771,0.00035579,0.00006137,-0.00000915,0.00005498,-0.
 00013362,0.00017377,0.00035849,-0.03794998,-0.16251668,-0.12224080,0.0
 4038146,0.17927424,0.00001407,0.00000146,0.00000167,-0.00000731,-0.000
 00292,0.00000074,-0.00000522,0.00000178,0.00000128,-0.00002800,-0.0000
 2848,0.00001742,-0.00000947,0.00000864,0.00000327,-0.00000520,0.000000
 66,-0.00000547,-0.00001080,0.00007586,-0.00001785,0.00000214,-0.000002
 70,-0.00000491,0.00000394,-0.00000621,0.00000294,0.00013790,-0.0000252
 9,-0.00006340,-0.00002471,0.00005128,0.00002988,-0.00000595,-0.0000027
 9,-0.00000050,-0.00006326,-0.00004063,0.00013643,-0.00001903,0.0002505
 5,-0.00015322,0.00029387,0.00026977,-0.00048615,0.00026282,0.00019072,
 0.00064577,-0.00002879,-0.00015420,0.00018688,0.00194497,0.00502027,0.
 00427303,-0.00007487,0.00087430,0.00055868,-0.00007781,0.00006963,-0.0
 0009862,-0.00011168,0.00011787,0.00041408,-0.00010176,0.00020645,0.000
 29524,0.00015511,0.00019553,0.00020971,0.00024289,-0.00001431,0.000107
 70,-0.00005838,-0.00004209,-0.00003929,0.00020288,0.00003783,0.0001221
 0,-0.04132427,-0.12468435,-0.17844033,0.04587001,0.13605720,0.19205714
 ,0.00000734,-0.00000217,-0.00000712,-0.00000153,-0.00000207,0.00000301
 ,-0.00000054,0.00000318,0.00000218,0.00003128,0.00001014,-0.00001435,-
 0.00000273,-0.00000243,0.00000034,0.00000943,-0.00001612,0.00000175,0.
 00007198,0.00000605,-0.00004252,0.00003284,0.00002632,-0.00002645,-0.0
 0000666,-0.00000480,-0.00000782,-0.00006866,-0.00016415,-0.00012904,-0
 .00000621,0.00002177,0.00001548,-0.00000003,0.00000238,-0.00000643,0.0
 0008328,0.00004787,0.00004247,0.00017621,-0.00029017,0.00022942,-0.000
 08858,0.00004007,0.00009048,0.00045532,-0.00051999,0.00063180,0.000141
 19,0.00019288,-0.00001628,-0.01476228,-0.00196815,-0.00052036,0.000433
 43,-0.00107353,-0.00015563,0.00046063,0.00045158,0.00040994,0.00033648
 ,0.00013412,-0.00007905,-0.00002325,0.00002316,-0.00002310,0.00015977,
 0.00400394,-0.00091559,0.00026813,-0.00013740,0.00002626,0.00035622,-0
 .00013459,0.00007453,-0.00110661,0.00006357,-0.00010459,-0.30292369,-0
 .02548758,-0.01346154,-0.00606460,-0.00089241,-0.00034839,0.33142382,0
 .00000450,-0.00000517,-0.00000017,0.00000098,-0.00000106,0.00000245,0.
 00000051,-0.00000059,-0.00000115,0.00000176,0.00001730,-0.00001270,-0.
 00000058,-0.00000219,0.00000272,-0.00000750,-0.00000634,0.00001136,0.0
 0003420,0.00003651,0.00000564,0.00000204,-0.00000592,-0.00002702,0.000
 00256,-0.00000705,-0.00001077,-0.00007550,-0.00007318,-0.00003644,0.00
 000091,0.00000277,0.00000697,-0.00000034,0.00000298,-0.00000270,0.0000
 5504,0.00001189,-0.00002038,0.00001702,-0.00009317,0.00022409,-0.00032
 289,0.00012464,0.00051574,0.00012912,0.00126642,-0.00088808,-0.0001064
 7,-0.00002754,-0.00028824,0.02951660,0.00252803,0.00095796,0.00076479,
 0.00160542,0.00045578,-0.00043847,-0.00032939,-0.00017785,-0.00023329,
 0.00026538,0.00020291,-0.00004260,-0.00008428,-0.00005766,0.00168373,-
 0.00514474,0.00123896,-0.00004305,0.00007782,0.00020095,-0.00015014,-0
 .00003126,-0.00017886,0.00189058,0.00015179,0.00022025,-0.02784338,-0.
 04986920,-0.00168694,-0.02130002,-0.00214089,0.00012448,0.02677607,0.0
 5356559,0.00002792,-0.00000220,-0.00000388,-0.00001003,-0.00000380,0.0
 0000367,-0.00000632,0.00000723,0.00000446,-0.00000918,-0.00001293,-0.0
 0000546,-0.00001735,0.00000670,0.00000713,-0.00000843,-0.00000148,0.00
 001496,0.00003889,-0.00003294,0.00000435,0.00000613,0.00001702,-0.0000
 0169,-0.00005199,-0.00000512,0.00000984,-0.00017719,-0.00024493,-0.000
 29662,-0.00000913,0.00008685,0.00008686,-0.00000978,-0.00000298,0.0000
 0058,0.00014556,0.00009543,0.00007403,0.00018040,-0.00005644,0.0001161
 6,-0.00024065,0.00034948,-0.00041988,-0.00055511,-0.00028401,0.0003159
 2,0.00005303,-0.00004150,0.00010235,-0.00694363,-0.00116650,-0.0021206
 2,0.00060424,-0.00023782,0.00003900,0.00010237,-0.00010115,0.00017267,
 -0.00000945,0.00005007,-0.00010497,0.00006594,0.00002019,-0.00001191,-
 0.00026206,0.00135109,-0.00017410,0.00034362,0.00013362,0.00013155,-0.
 00029312,-0.00009004,0.00021709,-0.00049835,0.00010491,0.00051857,-0.0
 1256075,-0.00135231,-0.04737406,-0.02308813,-0.00151618,-0.00088972,0.
 01474288,0.00055538,0.04695905,0.00001203,-0.00000007,-0.00000582,-0.0
 0000353,-0.00000208,0.00000165,-0.00000201,0.00000340,0.00000246,0.000
 01219,-0.00000005,-0.00000669,-0.00000597,0.00000013,0.00000175,0.0000
 0368,-0.00000471,0.00000305,0.00004353,-0.00003035,-0.00001430,0.00001
 216,0.00001550,-0.00001091,-0.00002186,-0.00000047,-0.00000258,-0.0000
 8210,-0.00012681,-0.00014739,-0.00000339,0.00003728,0.00002927,-0.0000
 0338,-0.00000087,-0.00000118,0.00006708,0.00004734,0.00002060,0.000186
 24,-0.00023731,0.00008840,-0.00030319,0.00015228,0.00038917,-0.0007788
 5,0.00260910,-0.00060571,0.00050949,0.00042579,-0.00052193,0.00317445,
 0.00478314,-0.01293168,0.00021757,-0.00048287,-0.00013132,-0.00002096,
 0.00001100,0.00009897,-0.00007086,-0.00015028,-0.00012420,0.00007978,-
 0.00008726,0.00008164,0.00089828,0.00008023,-0.00085359,-0.00006246,-0
 .00001079,-0.00001195,-0.00014220,0.00016905,0.00012607,0.00021794,-0.
 00018121,0.00009986,-0.07662990,-0.03033365,0.07785767,0.00207639,0.00
 338789,-0.00682571,-0.00939197,-0.01031620,0.02843967,0.08001181,0.000
 02992,-0.00000263,-0.00000326,-0.00001069,-0.00000292,-0.00000017,-0.0
 0000595,0.00000685,0.00000479,-0.00005132,-0.00005530,0.00000590,-0.00
 002049,0.00002266,0.00000719,0.00000738,0.00000273,-0.00000666,0.00000
 452,0.00005906,0.00006419,0.00000595,0.00000459,0.00000568,-0.00004118
 ,-0.00000733,0.00001717,-0.00016284,-0.00015244,-0.00017268,0.00000037
 ,0.00008938,0.00010202,-0.00001572,0.,0.00000645,0.00009545,0.00009527
 ,0.00008491,-0.00023619,0.00048719,0.00003885,0.00086261,-0.00061284,-
 0.00088932,0.00286476,-0.00473174,0.00068383,-0.00035280,-0.00049784,0
 .00155783,-0.01021221,-0.01113333,0.02579511,-0.00070409,0.00122785,0.
 00114808,0.00000706,-0.00007796,-0.00008303,0.00015829,0.00040441,-0.0
 0017718,0.00014762,-0.00031628,-0.00065379,-0.00131445,0.00094115,0.00
 006966,0.00012074,0.00000020,-0.00006697,0.00058708,0.00019963,-0.0002
 9059,-0.00016996,0.00006108,-0.00035642,-0.02910814,-0.07564243,0.0753
 8357,0.00837902,0.00827383,-0.01855030,-0.00110755,-0.00183459,0.00237
 436,0.03024285,0.08319175,-0.00006664,0.00000351,0.00000887,0.00002178
 ,0.00000797,-0.00000132,0.00001360,-0.00001171,-0.00000647,0.00004846,
 0.00005829,0.00000893,0.00003098,-0.00002628,-0.00000850,-0.00001198,-
 0.00000369,0.00000155,-0.00005680,-0.00005232,-0.00007616,0.00001058,-
 0.00000321,0.00001830,0.00008409,0.00000518,-0.00000110,0.00017935,0.0
 0042463,0.00042617,0.00003877,-0.00017722,-0.00015382,0.00002145,-0.00
 000086,0.00000111,-0.00013772,-0.00014053,-0.00017420,-0.00014637,-0.0
 0008100,-0.00017886,-0.00032035,0.00035667,0.00022598,-0.00085893,0.00
 110016,0.00077286,0.00028025,0.00027380,-0.00029497,0.00228244,0.00169
 874,-0.00722547,0.00003981,-0.00086040,0.00047289,-0.00003441,0.000009
 09,0.00000966,-0.00019526,0.00004802,0.00022005,0.00009827,0.00014129,
 0.00051164,0.00059405,-0.00044912,0.00008689,0.00000038,0.00003487,-0.
 00001898,-0.00055661,-0.00002524,0.00026184,-0.00015427,-0.00006220,0.
 00027744,0.07658821,0.07732919,-0.24790774,0.00766442,0.00783830,-0.01
 886449,-0.00041227,-0.00133667,0.00262466,-0.08504527,-0.08609925,0.26
 898324\\-0.00000431,0.00000475,-0.00000760,0.00000308,-0.00000121,-0.0
 0000171,0.00000566,0.00000680,0.00000702,0.00000734,-0.00001290,0.0000
 0791,-0.00000320,-0.00000718,-0.00000395,0.00000150,0.00000433,0.00000
 900,-0.00000839,0.00000190,-0.00000712,0.00000412,-0.00000067,-0.00000
 139,0.00000223,0.00000251,-0.00000020,-0.00002635,-0.00000488,0.000015
 98,-0.00000285,-0.00003919,-0.00000581,0.00000445,0.00000064,-0.000008
 25,0.00000225,0.00000223,0.00000051,0.00000577,0.00001269,-0.00001450,
 0.00000784,0.00000255,0.00001461,-0.00000223,-0.00000216,0.00000014,-0
 .00000059,0.00000232,-0.00000104,-0.00000730,-0.00000172,-0.00000826,0
 .00000375,0.00000636,0.00000006,0.00000051,0.00000285,-0.00000236,-0.0
 0000038,0.00000157,-0.00000275,0.00000100,0.00000421,-0.00000147,0.000
 00525,0.00000308,0.00000204,-0.00000048,0.00000004,0.00000143,-0.00000
 144,0.00000154,0.00000248,-0.00000069,0.00000008,-0.00000080,0.0000011
 1,0.00000238,0.00000158,0.00000070,0.00000145,0.00000261,0.00000046,0.
 00000296,0.00000027,0.00000120,0.00000267,0.00000159\\\@


 ... I FELL INTO A REVERIE ... THE ATOMS WERE GAMBOLING BEFORE MY EYES
 ... I SAW HOW TWO SMALL ONES UNITED TO FORM A PAIR;
 HOW THE LARGER ONES SEIZED TWO OF THE SMALLER ONES;
 HOW STILL LARGER ONES KEPT HOLD OF THREE OR FOUR
 SMALLER ONES ... I SAW HOW THE LARGER ONES FORMED A CHAIN ...
 THIS WAS THE ORIGIN OF THE STRUCTURE THEORY.

                                   -- C.F.KEKULE VON STRADONITZ
 Job cpu time:       1 days  3 hours 59 minutes 59.2 seconds.
 Elapsed time:       0 days  2 hours 20 minutes 25.5 seconds.
 File lengths (MBytes):  RWF=    872 Int=      0 D2E=      0 Chk=     42 Scr=      1
 Normal termination of Gaussian 16 at Wed Jul 10 18:07:30 2024.
