 Entering Gaussian System, Link 0=g16
 Initial command:
 /mnt/data/applications/G16/g16/l1.exe "/scratch/Gau-15218.inp" -scrdir="/scratch/"
 Entering Link 1 = /mnt/data/applications/G16/g16/l1.exe PID=     15219.
  
 Copyright (c) 1988,1990,1992,1993,1995,1998,2003,2009,2016,
            Gaussian, Inc.  All Rights Reserved.
  
 This is part of the Gaussian(R) 16 program.  It is based on
 the Gaussian(R) 09 system (copyright 2009, Gaussian, Inc.),
 the Gaussian(R) 03 system (copyright 2003, Gaussian, Inc.),
 the Gaussian(R) 98 system (copyright 1998, Gaussian, Inc.),
 the Gaussian(R) 94 system (copyright 1995, Gaussian, Inc.),
 the Gaussian 92(TM) system (copyright 1992, Gaussian, Inc.),
 the Gaussian 90(TM) system (copyright 1990, Gaussian, Inc.),
 the Gaussian 88(TM) system (copyright 1988, Gaussian, Inc.),
 the Gaussian 86(TM) system (copyright 1986, Carnegie Mellon
 University), and the Gaussian 82(TM) system (copyright 1983,
 Carnegie Mellon University). Gaussian is a federally registered
 trademark of Gaussian, Inc.
  
 This software contains proprietary and confidential information,
 including trade secrets, belonging to Gaussian, Inc.
  
 This software is provided under written license and may be
 used, copied, transmitted, or stored only in accord with that
 written license.
  
 The following legend is applicable only to US Government
 contracts under FAR:
  
                    RESTRICTED RIGHTS LEGEND
  
 Use, reproduction and disclosure by the US Government is
 subject to restrictions as set forth in subparagraphs (a)
 and (c) of the Commercial Computer Software - Restricted
 Rights clause in FAR 52.227-19.
  
 Gaussian, Inc.
 340 Quinnipiac St., Bldg. 40, Wallingford CT 06492
  
  
 ---------------------------------------------------------------
 Warning -- This program may not be used in any manner that
 competes with the business of Gaussian, Inc. or will provide
 assistance to any competitor of Gaussian, Inc.  The licensee
 of this program is prohibited from giving any competitor of
 Gaussian, Inc. access to this program.  By using this program,
 the user acknowledges that Gaussian, Inc. is engaged in the
 business of creating and licensing software in the field of
 computational chemistry and represents and warrants to the
 licensee that it is not a competitor of Gaussian, Inc. and that
 it will not use this program in any manner prohibited above.
 ---------------------------------------------------------------
  

 Cite this work as:
 Gaussian 16, Revision A.03,
 M. J. Frisch, G. W. Trucks, H. B. Schlegel, G. E. Scuseria, 
 M. A. Robb, J. R. Cheeseman, G. Scalmani, V. Barone, 
 G. A. Petersson, H. Nakatsuji, X. Li, M. Caricato, A. V. Marenich, 
 J. Bloino, B. G. Janesko, R. Gomperts, B. Mennucci, H. P. Hratchian, 
 J. V. Ortiz, A. F. Izmaylov, J. L. Sonnenberg, D. Williams-Young, 
 F. Ding, F. Lipparini, F. Egidi, J. Goings, B. Peng, A. Petrone, 
 T. Henderson, D. Ranasinghe, V. G. Zakrzewski, J. Gao, N. Rega, 
 G. Zheng, W. Liang, M. Hada, M. Ehara, K. Toyota, R. Fukuda, 
 J. Hasegawa, M. Ishida, T. Nakajima, Y. Honda, O. Kitao, H. Nakai, 
 T. Vreven, K. Throssell, J. A. Montgomery, Jr., J. E. Peralta, 
 F. Ogliaro, M. J. Bearpark, J. J. Heyd, E. N. Brothers, K. N. Kudin, 
 V. N. Staroverov, T. A. Keith, R. Kobayashi, J. Normand, 
 K. Raghavachari, A. P. Rendell, J. C. Burant, S. S. Iyengar, 
 J. Tomasi, M. Cossi, J. M. Millam, M. Klene, C. Adamo, R. Cammi, 
 J. W. Ochterski, R. L. Martin, K. Morokuma, O. Farkas, 
 J. B. Foresman, and D. J. Fox, Gaussian, Inc., Wallingford CT, 2016.
 
 ******************************************
 Gaussian 16:  AM64L-G16RevA.03 25-Dec-2016
                10-Jul-2024 
 ******************************************
 %nproc=12
 Will use up to   12 processors via shared memory.
 %mem=20GB
 %chk=e.chk
 ----------------------------------------------------------------------
 #p opt freq b3lyp/gen pseudo=read EmpiricalDispersion=GD3BJ pop=(orbit
 als=20) optcyc=300 nosymm scrf=(pcm,solvent=acetonitrile)
 ----------------------------------------------------------------------
 1/6=300,18=20,19=15,26=3,38=1/1,3;
 2/9=110,12=2,15=1,17=6,18=5,40=1/2;
 3/5=7,11=2,16=1,17=8,25=1,30=1,70=2201,71=1,72=2,74=-5,124=41/1,2,3;
 4//1;
 5/5=2,38=5,53=2/2;
 6/7=2,8=2,9=2,10=2,28=1,96=20/1;
 7/30=1/1,2,3,16;
 1/6=300,18=20,19=15,26=3/3(2);
 2/9=110,15=1/2;
 99//99;
 2/9=110,15=1/2;
 3/5=7,6=1,11=2,16=1,17=8,25=1,30=1,70=2205,71=1,72=2,74=-5,82=7,124=41/1,2,3;
 4/5=5,16=3,69=1/1;
 5/5=2,38=5,53=2/2;
 7/30=1/1,2,3,16;
 1/6=300,18=20,19=15,26=3/3(-5);
 2/9=110,15=1/2;
 6/7=2,8=2,9=2,10=2,19=2,28=1,96=20/1;
 99/9=1/99;
 Leave Link    1 at Wed Jul 10 11:17:51 2024, MaxMem=  2684354560 cpu:               2.5 elap:               0.3
 (Enter /mnt/data/applications/G16/g16/l101.exe)
 -------------------
 Title Card Required
 -------------------
 Symbolic Z-matrix:
 Charge =  0 Multiplicity = 1
 C                    -6.87729   3.5121    2.77972 
 H                    -6.10533   2.90106   2.36065 
 H                    -7.09515   2.80709   3.55458 
 C                    -6.48832   4.40004   3.98349 
 H                    -5.5337    4.85575   3.82243 
 H                    -6.44675   3.7604    4.84023 
 C                    -7.49251   5.5448    4.20497 
 H                    -7.3048    5.97501   5.16653 
 H                    -7.35351   6.28249   3.44248 
 C                    -9.29091   4.01865   3.04219 
 N                    -8.27181   3.14835   2.42646 
 H                    -8.41317   2.22158   2.77454 
 O                    -10.49155   3.89244   2.68715 
 C                    -8.93897   5.07626   4.09465 
 C                    -9.90327   5.62331   4.87415 
 C                    -10.86801   6.16984   5.65322 
 H                    -11.13662   5.70369   6.57816 
 C                    -12.01118   8.26382   6.44861 
 H                    -11.14891   8.51335   7.03099 
 H                    -12.68135   7.67392   7.03833 
 C                    -11.57778   7.46179   5.20743 
 H                    -12.29098   7.01845   4.54432 
 H                    -11.05662   8.24551   4.69845 
 C                    -12.72098   9.55575   6.00286 
 H                    -13.5151   9.31191   5.32845 
 H                    -12.01942   10.19662   5.51093 
 C                    -13.29759   10.27624   7.23575 
 C                    -12.55588   11.27119   7.87254 
 C                    -14.5622   9.93406   7.7154 
 C                    -13.07854   11.92394   8.98933 
 H                    -11.55927   11.54117   7.49436 
 C                    -15.0846   10.58629   8.8322 
 H                    -15.14695   9.14984   7.21287 
 C                    -14.34234   11.5813   9.46955 
 H                    -12.49322   12.70776   9.4916 
 H                    -16.08107   10.31633   9.21098 
 H                    -14.75411   12.09533   10.35019 
 
 ITRead=  0  0  0  0  0  0  0  0  0  0  0  0  0  0  0  0  0  0  0  0
 ITRead=  0  0  0  0  0  0  0  0  0  0  0  0  0  0  0  0  0
 MicOpt= -1 -1 -1 -1 -1 -1 -1 -1 -1 -1 -1 -1 -1 -1 -1 -1 -1 -1 -1 -1
 MicOpt= -1 -1 -1 -1 -1 -1 -1 -1 -1 -1 -1 -1 -1 -1 -1 -1 -1
 NAtoms=     37 NQM=       37 NQMF=       0 NMMI=      0 NMMIF=      0
                NMic=       0 NMicF=      0.
                    Isotopes and Nuclear Properties:
 (Nuclear quadrupole moments (NQMom) in fm**2, nuclear magnetic moments (NMagM)
  in nuclear magnetons)

  Atom         1           2           3           4           5           6           7           8           9          10
 IAtWgt=          12           1           1          12           1           1          12           1           1          12
 AtmWgt=  12.0000000   1.0078250   1.0078250  12.0000000   1.0078250   1.0078250  12.0000000   1.0078250   1.0078250  12.0000000
 NucSpn=           0           1           1           0           1           1           0           1           1           0
 AtZEff=  -0.0000000  -0.0000000  -0.0000000  -0.0000000  -0.0000000  -0.0000000  -0.0000000  -0.0000000  -0.0000000  -0.0000000
 NQMom=    0.0000000   0.0000000   0.0000000   0.0000000   0.0000000   0.0000000   0.0000000   0.0000000   0.0000000   0.0000000
 NMagM=    0.0000000   2.7928460   2.7928460   0.0000000   2.7928460   2.7928460   0.0000000   2.7928460   2.7928460   0.0000000
 AtZNuc=   6.0000000   1.0000000   1.0000000   6.0000000   1.0000000   1.0000000   6.0000000   1.0000000   1.0000000   6.0000000

  Atom        11          12          13          14          15          16          17          18          19          20
 IAtWgt=          14           1          16          12          12          12           1          12           1           1
 AtmWgt=  14.0030740   1.0078250  15.9949146  12.0000000  12.0000000  12.0000000   1.0078250  12.0000000   1.0078250   1.0078250
 NucSpn=           2           1           0           0           0           0           1           0           1           1
 AtZEff=  -0.0000000  -0.0000000  -0.0000000  -0.0000000  -0.0000000  -0.0000000  -0.0000000  -0.0000000  -0.0000000  -0.0000000
 NQMom=    2.0440000   0.0000000   0.0000000   0.0000000   0.0000000   0.0000000   0.0000000   0.0000000   0.0000000   0.0000000
 NMagM=    0.4037610   2.7928460   0.0000000   0.0000000   0.0000000   0.0000000   2.7928460   0.0000000   2.7928460   2.7928460
 AtZNuc=   7.0000000   1.0000000   8.0000000   6.0000000   6.0000000   6.0000000   1.0000000   6.0000000   1.0000000   1.0000000

  Atom        21          22          23          24          25          26          27          28          29          30
 IAtWgt=          12           1           1          12           1           1          12          12          12          12
 AtmWgt=  12.0000000   1.0078250   1.0078250  12.0000000   1.0078250   1.0078250  12.0000000  12.0000000  12.0000000  12.0000000
 NucSpn=           0           1           1           0           1           1           0           0           0           0
 AtZEff=  -0.0000000  -0.0000000  -0.0000000  -0.0000000  -0.0000000  -0.0000000  -0.0000000  -0.0000000  -0.0000000  -0.0000000
 NQMom=    0.0000000   0.0000000   0.0000000   0.0000000   0.0000000   0.0000000   0.0000000   0.0000000   0.0000000   0.0000000
 NMagM=    0.0000000   2.7928460   2.7928460   0.0000000   2.7928460   2.7928460   0.0000000   0.0000000   0.0000000   0.0000000
 AtZNuc=   6.0000000   1.0000000   1.0000000   6.0000000   1.0000000   1.0000000   6.0000000   6.0000000   6.0000000   6.0000000

  Atom        31          32          33          34          35          36          37
 IAtWgt=           1          12           1          12           1           1           1
 AtmWgt=   1.0078250  12.0000000   1.0078250  12.0000000   1.0078250   1.0078250   1.0078250
 NucSpn=           1           0           1           0           1           1           1
 AtZEff=  -0.0000000  -0.0000000  -0.0000000  -0.0000000  -0.0000000  -0.0000000  -0.0000000
 NQMom=    0.0000000   0.0000000   0.0000000   0.0000000   0.0000000   0.0000000   0.0000000
 NMagM=    2.7928460   0.0000000   2.7928460   0.0000000   2.7928460   2.7928460   2.7928460
 AtZNuc=   1.0000000   6.0000000   1.0000000   6.0000000   1.0000000   1.0000000   1.0000000
 Leave Link  101 at Wed Jul 10 11:17:52 2024, MaxMem=  2684354560 cpu:               5.3 elap:               0.5
 (Enter /mnt/data/applications/G16/g16/l103.exe)

 GradGradGradGradGradGradGradGradGradGradGradGradGradGradGradGradGradGrad
 Berny optimization.
 Initialization pass.
                           ----------------------------
                           !    Initial Parameters    !
                           ! (Angstroms and Degrees)  !
 --------------------------                            --------------------------
 ! Name  Definition              Value          Derivative Info.                !
 --------------------------------------------------------------------------------
 ! R1    R(1,2)                  1.07           estimate D2E/DX2                !
 ! R2    R(1,3)                  1.07           estimate D2E/DX2                !
 ! R3    R(1,4)                  1.5456         estimate D2E/DX2                !
 ! R4    R(1,11)                 1.4838         estimate D2E/DX2                !
 ! R5    R(4,5)                  1.07           estimate D2E/DX2                !
 ! R6    R(4,6)                  1.07           estimate D2E/DX2                !
 ! R7    R(4,7)                  1.5388         estimate D2E/DX2                !
 ! R8    R(7,8)                  1.07           estimate D2E/DX2                !
 ! R9    R(7,9)                  1.07           estimate D2E/DX2                !
 ! R10   R(7,14)                 1.5245         estimate D2E/DX2                !
 ! R11   R(10,11)                1.4748         estimate D2E/DX2                !
 ! R12   R(10,13)                1.2584         estimate D2E/DX2                !
 ! R13   R(10,14)                1.533          estimate D2E/DX2                !
 ! R14   R(11,12)                1.0            estimate D2E/DX2                !
 ! R15   R(14,15)                1.3553         estimate D2E/DX2                !
 ! R16   R(15,16)                1.3551         estimate D2E/DX2                !
 ! R17   R(16,17)                1.07           estimate D2E/DX2                !
 ! R18   R(16,21)                1.54           estimate D2E/DX2                !
 ! R19   R(18,19)                1.07           estimate D2E/DX2                !
 ! R20   R(18,20)                1.07           estimate D2E/DX2                !
 ! R21   R(18,21)                1.54           estimate D2E/DX2                !
 ! R22   R(18,24)                1.54           estimate D2E/DX2                !
 ! R23   R(21,22)                1.07           estimate D2E/DX2                !
 ! R24   R(21,23)                1.07           estimate D2E/DX2                !
 ! R25   R(24,25)                1.07           estimate D2E/DX2                !
 ! R26   R(24,26)                1.07           estimate D2E/DX2                !
 ! R27   R(24,27)                1.54           estimate D2E/DX2                !
 ! R28   R(27,28)                1.3948         estimate D2E/DX2                !
 ! R29   R(27,29)                1.3951         estimate D2E/DX2                !
 ! R30   R(28,30)                1.3952         estimate D2E/DX2                !
 ! R31   R(28,31)                1.0996         estimate D2E/DX2                !
 ! R32   R(29,32)                1.3948         estimate D2E/DX2                !
 ! R33   R(29,33)                1.0998         estimate D2E/DX2                !
 ! R34   R(30,34)                1.3947         estimate D2E/DX2                !
 ! R35   R(30,35)                1.0997         estimate D2E/DX2                !
 ! R36   R(32,34)                1.3954         estimate D2E/DX2                !
 ! R37   R(32,36)                1.0997         estimate D2E/DX2                !
 ! R38   R(34,37)                1.0997         estimate D2E/DX2                !
 ! A1    A(2,1,3)               93.1095         estimate D2E/DX2                !
 ! A2    A(2,1,4)              116.8434         estimate D2E/DX2                !
 ! A3    A(2,1,11)             116.4098         estimate D2E/DX2                !
 ! A4    A(3,1,4)               82.2855         estimate D2E/DX2                !
 ! A5    A(3,1,11)              79.6031         estimate D2E/DX2                !
 ! A6    A(4,1,11)             124.2479         estimate D2E/DX2                !
 ! A7    A(1,4,5)              110.6084         estimate D2E/DX2                !
 ! A8    A(1,4,6)              106.8562         estimate D2E/DX2                !
 ! A9    A(1,4,7)              112.0405         estimate D2E/DX2                !
 ! A10   A(5,4,6)              109.9051         estimate D2E/DX2                !
 ! A11   A(5,4,7)              106.6801         estimate D2E/DX2                !
 ! A12   A(6,4,7)              110.7825         estimate D2E/DX2                !
 ! A13   A(4,7,8)              108.2987         estimate D2E/DX2                !
 ! A14   A(4,7,9)              108.9984         estimate D2E/DX2                !
 ! A15   A(4,7,14)             112.3415         estimate D2E/DX2                !
 ! A16   A(8,7,9)              109.9016         estimate D2E/DX2                !
 ! A17   A(8,7,14)             110.7971         estimate D2E/DX2                !
 ! A18   A(9,7,14)             106.4744         estimate D2E/DX2                !
 ! A19   A(11,10,13)           118.8363         estimate D2E/DX2                !
 ! A20   A(11,10,14)           122.3505         estimate D2E/DX2                !
 ! A21   A(13,10,14)           118.8126         estimate D2E/DX2                !
 ! A22   A(1,11,10)            113.9131         estimate D2E/DX2                !
 ! A23   A(1,11,12)            106.091          estimate D2E/DX2                !
 ! A24   A(10,11,12)           107.6911         estimate D2E/DX2                !
 ! A25   A(7,14,10)            118.6566         estimate D2E/DX2                !
 ! A26   A(7,14,15)            120.6264         estimate D2E/DX2                !
 ! A27   A(10,14,15)           120.6631         estimate D2E/DX2                !
 ! A28   A(15,16,17)           119.9979         estimate D2E/DX2                !
 ! A29   A(15,16,21)           120.0027         estimate D2E/DX2                !
 ! A30   A(17,16,21)           119.9995         estimate D2E/DX2                !
 ! A31   A(19,18,20)           109.4709         estimate D2E/DX2                !
 ! A32   A(19,18,21)           109.4708         estimate D2E/DX2                !
 ! A33   A(19,18,24)           109.4711         estimate D2E/DX2                !
 ! A34   A(20,18,21)           109.4713         estimate D2E/DX2                !
 ! A35   A(20,18,24)           109.472          estimate D2E/DX2                !
 ! A36   A(21,18,24)           109.4712         estimate D2E/DX2                !
 ! A37   A(16,21,18)           109.47           estimate D2E/DX2                !
 ! A38   A(16,21,22)            97.9897         estimate D2E/DX2                !
 ! A39   A(16,21,23)           121.8489         estimate D2E/DX2                !
 ! A40   A(18,21,22)           121.8489         estimate D2E/DX2                !
 ! A41   A(18,21,23)            97.9897         estimate D2E/DX2                !
 ! A42   A(22,21,23)           109.4712         estimate D2E/DX2                !
 ! A43   A(18,24,25)           109.4712         estimate D2E/DX2                !
 ! A44   A(18,24,26)           109.4712         estimate D2E/DX2                !
 ! A45   A(18,24,27)           109.4712         estimate D2E/DX2                !
 ! A46   A(25,24,26)           109.4712         estimate D2E/DX2                !
 ! A47   A(25,24,27)           109.4713         estimate D2E/DX2                !
 ! A48   A(26,24,27)           109.4712         estimate D2E/DX2                !
 ! A49   A(24,27,28)           120.008          estimate D2E/DX2                !
 ! A50   A(24,27,29)           119.992          estimate D2E/DX2                !
 ! A51   A(28,27,29)           120.0            estimate D2E/DX2                !
 ! A52   A(27,28,30)           119.9985         estimate D2E/DX2                !
 ! A53   A(27,28,31)           120.0043         estimate D2E/DX2                !
 ! A54   A(30,28,31)           119.9972         estimate D2E/DX2                !
 ! A55   A(27,29,32)           120.0047         estimate D2E/DX2                !
 ! A56   A(27,29,33)           119.984          estimate D2E/DX2                !
 ! A57   A(32,29,33)           120.0113         estimate D2E/DX2                !
 ! A58   A(28,30,34)           120.0086         estimate D2E/DX2                !
 ! A59   A(28,30,35)           119.9808         estimate D2E/DX2                !
 ! A60   A(34,30,35)           120.0106         estimate D2E/DX2                !
 ! A61   A(29,32,34)           119.994          estimate D2E/DX2                !
 ! A62   A(29,32,36)           120.0249         estimate D2E/DX2                !
 ! A63   A(34,32,36)           119.9811         estimate D2E/DX2                !
 ! A64   A(30,34,32)           119.9942         estimate D2E/DX2                !
 ! A65   A(30,34,37)           120.0128         estimate D2E/DX2                !
 ! A66   A(32,34,37)           119.993          estimate D2E/DX2                !
 ! A67   L(14,15,16,13,-1)     179.9673         estimate D2E/DX2                !
 ! A68   L(14,15,16,13,-2)     179.9939         estimate D2E/DX2                !
 ! D1    D(2,1,4,5)             42.2366         estimate D2E/DX2                !
 ! D2    D(2,1,4,6)            -77.3676         estimate D2E/DX2                !
 ! D3    D(2,1,4,7)            161.1226         estimate D2E/DX2                !
 ! D4    D(3,1,4,5)            131.8238         estimate D2E/DX2                !
 ! D5    D(3,1,4,6)             12.2196         estimate D2E/DX2                !
 ! D6    D(3,1,4,7)           -109.2902         estimate D2E/DX2                !
 ! D7    D(11,1,4,5)          -156.3886         estimate D2E/DX2                !
 ! D8    D(11,1,4,6)            84.0072         estimate D2E/DX2                !
 ! D9    D(11,1,4,7)           -37.5027         estimate D2E/DX2                !
 ! D10   D(2,1,11,10)          179.514          estimate D2E/DX2                !
 ! D11   D(2,1,11,12)           61.2274         estimate D2E/DX2                !
 ! D12   D(3,1,11,10)           91.2068         estimate D2E/DX2                !
 ! D13   D(3,1,11,12)          -27.0798         estimate D2E/DX2                !
 ! D14   D(4,1,11,10)           18.0661         estimate D2E/DX2                !
 ! D15   D(4,1,11,12)         -100.2205         estimate D2E/DX2                !
 ! D16   D(1,4,7,8)            166.9239         estimate D2E/DX2                !
 ! D17   D(1,4,7,9)            -73.535          estimate D2E/DX2                !
 ! D18   D(1,4,7,14)            44.2246         estimate D2E/DX2                !
 ! D19   D(5,4,7,8)            -71.897          estimate D2E/DX2                !
 ! D20   D(5,4,7,9)             47.6442         estimate D2E/DX2                !
 ! D21   D(5,4,7,14)           165.4038         estimate D2E/DX2                !
 ! D22   D(6,4,7,8)             47.6982         estimate D2E/DX2                !
 ! D23   D(6,4,7,9)            167.2394         estimate D2E/DX2                !
 ! D24   D(6,4,7,14)           -75.001          estimate D2E/DX2                !
 ! D25   D(4,7,14,10)          -37.4293         estimate D2E/DX2                !
 ! D26   D(4,7,14,15)          145.2219         estimate D2E/DX2                !
 ! D27   D(8,7,14,10)         -158.7081         estimate D2E/DX2                !
 ! D28   D(8,7,14,15)           23.9431         estimate D2E/DX2                !
 ! D29   D(9,7,14,10)           81.8171         estimate D2E/DX2                !
 ! D30   D(9,7,14,15)          -95.5317         estimate D2E/DX2                !
 ! D31   D(13,10,11,1)         171.9588         estimate D2E/DX2                !
 ! D32   D(13,10,11,12)        -70.6751         estimate D2E/DX2                !
 ! D33   D(14,10,11,1)          -7.7462         estimate D2E/DX2                !
 ! D34   D(14,10,11,12)        109.6199         estimate D2E/DX2                !
 ! D35   D(11,10,14,7)          19.0589         estimate D2E/DX2                !
 ! D36   D(11,10,14,15)       -163.5932         estimate D2E/DX2                !
 ! D37   D(13,10,14,7)        -160.6461         estimate D2E/DX2                !
 ! D38   D(13,10,14,15)         16.7017         estimate D2E/DX2                !
 ! D39   D(7,14,16,17)         -94.2107         estimate D2E/DX2                !
 ! D40   D(7,14,16,21)          85.8086         estimate D2E/DX2                !
 ! D41   D(10,14,16,17)         88.4939         estimate D2E/DX2                !
 ! D42   D(10,14,16,21)        -91.4868         estimate D2E/DX2                !
 ! D43   D(15,16,21,18)       -149.997          estimate D2E/DX2                !
 ! D44   D(15,16,21,22)         82.0662         estimate D2E/DX2                !
 ! D45   D(15,16,21,23)        -36.845          estimate D2E/DX2                !
 ! D46   D(17,16,21,18)         30.0033         estimate D2E/DX2                !
 ! D47   D(17,16,21,22)        -97.9336         estimate D2E/DX2                !
 ! D48   D(17,16,21,23)        143.1552         estimate D2E/DX2                !
 ! D49   D(19,18,21,16)         60.002          estimate D2E/DX2                !
 ! D50   D(19,18,21,22)        173.154          estimate D2E/DX2                !
 ! D51   D(19,18,21,23)        -67.9349         estimate D2E/DX2                !
 ! D52   D(20,18,21,16)        -59.9974         estimate D2E/DX2                !
 ! D53   D(20,18,21,22)         53.1546         estimate D2E/DX2                !
 ! D54   D(20,18,21,23)        172.0657         estimate D2E/DX2                !
 ! D55   D(24,18,21,16)       -179.9984         estimate D2E/DX2                !
 ! D56   D(24,18,21,22)        -66.8464         estimate D2E/DX2                !
 ! D57   D(24,18,21,23)         52.0647         estimate D2E/DX2                !
 ! D58   D(19,18,24,25)        173.4845         estimate D2E/DX2                !
 ! D59   D(19,18,24,26)         53.4845         estimate D2E/DX2                !
 ! D60   D(19,18,24,27)        -66.5155         estimate D2E/DX2                !
 ! D61   D(20,18,24,25)        -66.5155         estimate D2E/DX2                !
 ! D62   D(20,18,24,26)        173.4845         estimate D2E/DX2                !
 ! D63   D(20,18,24,27)         53.4845         estimate D2E/DX2                !
 ! D64   D(21,18,24,25)         53.4851         estimate D2E/DX2                !
 ! D65   D(21,18,24,26)        -66.5149         estimate D2E/DX2                !
 ! D66   D(21,18,24,27)        173.4851         estimate D2E/DX2                !
 ! D67   D(18,24,27,28)         93.8248         estimate D2E/DX2                !
 ! D68   D(18,24,27,29)        -86.2009         estimate D2E/DX2                !
 ! D69   D(25,24,27,28)       -146.1752         estimate D2E/DX2                !
 ! D70   D(25,24,27,29)         33.7991         estimate D2E/DX2                !
 ! D71   D(26,24,27,28)        -26.1752         estimate D2E/DX2                !
 ! D72   D(26,24,27,29)        153.7991         estimate D2E/DX2                !
 ! D73   D(24,27,28,30)        179.9892         estimate D2E/DX2                !
 ! D74   D(24,27,28,31)         -0.0056         estimate D2E/DX2                !
 ! D75   D(29,27,28,30)          0.0149         estimate D2E/DX2                !
 ! D76   D(29,27,28,31)       -179.9798         estimate D2E/DX2                !
 ! D77   D(24,27,29,32)        179.9881         estimate D2E/DX2                !
 ! D78   D(24,27,29,33)          0.0007         estimate D2E/DX2                !
 ! D79   D(28,27,29,32)         -0.0376         estimate D2E/DX2                !
 ! D80   D(28,27,29,33)        179.975          estimate D2E/DX2                !
 ! D81   D(27,28,30,34)          0.0323         estimate D2E/DX2                !
 ! D82   D(27,28,30,35)        179.9532         estimate D2E/DX2                !
 ! D83   D(31,28,30,34)       -179.9729         estimate D2E/DX2                !
 ! D84   D(31,28,30,35)         -0.052          estimate D2E/DX2                !
 ! D85   D(27,29,32,34)          0.0131         estimate D2E/DX2                !
 ! D86   D(27,29,32,36)       -179.9563         estimate D2E/DX2                !
 ! D87   D(33,29,32,34)       -179.9995         estimate D2E/DX2                !
 ! D88   D(33,29,32,36)          0.0311         estimate D2E/DX2                !
 ! D89   D(28,30,34,32)         -0.0568         estimate D2E/DX2                !
 ! D90   D(28,30,34,37)        179.9619         estimate D2E/DX2                !
 ! D91   D(35,30,34,32)       -179.9777         estimate D2E/DX2                !
 ! D92   D(35,30,34,37)          0.041          estimate D2E/DX2                !
 ! D93   D(29,32,34,30)          0.0341         estimate D2E/DX2                !
 ! D94   D(29,32,34,37)       -179.9846         estimate D2E/DX2                !
 ! D95   D(36,32,34,30)       -179.9964         estimate D2E/DX2                !
 ! D96   D(36,32,34,37)         -0.0151         estimate D2E/DX2                !
 --------------------------------------------------------------------------------
 Trust Radius=3.00D-01 FncErr=1.00D-07 GrdErr=1.00D-06 EigMax=2.50D+02 EigMin=1.00D-04
 Number of steps in this run=    222 maximum allowed number of steps=    222.
 GradGradGradGradGradGradGradGradGradGradGradGradGradGradGradGradGradGrad

 Leave Link  103 at Wed Jul 10 11:17:52 2024, MaxMem=  2684354560 cpu:               0.2 elap:               0.1
 (Enter /mnt/data/applications/G16/g16/l202.exe)
                          Input orientation:                          
 ---------------------------------------------------------------------
 Center     Atomic      Atomic             Coordinates (Angstroms)
 Number     Number       Type             X           Y           Z
 ---------------------------------------------------------------------
      1          6           0       -6.877288    3.512098    2.779722
      2          1           0       -6.105335    2.901057    2.360651
      3          1           0       -7.095145    2.807090    3.554575
      4          6           0       -6.488317    4.400037    3.983485
      5          1           0       -5.533697    4.855754    3.822426
      6          1           0       -6.446746    3.760403    4.840233
      7          6           0       -7.492507    5.544804    4.204972
      8          1           0       -7.304799    5.975011    5.166528
      9          1           0       -7.353509    6.282487    3.442483
     10          6           0       -9.290914    4.018649    3.042194
     11          7           0       -8.271811    3.148348    2.426461
     12          1           0       -8.413170    2.221579    2.774537
     13          8           0      -10.491549    3.892435    2.687146
     14          6           0       -8.938968    5.076263    4.094652
     15          6           0       -9.903268    5.623307    4.874146
     16          6           0      -10.868013    6.169843    5.653218
     17          1           0      -11.136625    5.703694    6.578156
     18          6           0      -12.011176    8.263823    6.448613
     19          1           0      -11.148911    8.513348    7.030989
     20          1           0      -12.681354    7.673916    7.038330
     21          6           0      -11.577785    7.461787    5.207431
     22          1           0      -12.290975    7.018449    4.544325
     23          1           0      -11.056620    8.245511    4.698446
     24          6           0      -12.720984    9.555750    6.002859
     25          1           0      -13.515099    9.311911    5.328452
     26          1           0      -12.019422   10.196625    5.510934
     27          6           0      -13.297585   10.276242    7.235751
     28          6           0      -12.555879   11.271187    7.872544
     29          6           0      -14.562203    9.934059    7.715400
     30          6           0      -13.078536   11.923943    8.989329
     31          1           0      -11.559272   11.541173    7.494358
     32          6           0      -15.084601   10.586286    8.832198
     33          1           0      -15.146948    9.149836    7.212866
     34          6           0      -14.342341   11.581298    9.469551
     35          1           0      -12.493219   12.707759    9.491602
     36          1           0      -16.081068   10.316334    9.210982
     37          1           0      -14.754110   12.095327   10.350185
 ---------------------------------------------------------------------
                    Distance matrix (angstroms):
                    1          2          3          4          5
     1  C    0.000000
     2  H    1.070002   0.000000
     3  H    1.069998   1.553709   0.000000
     4  C    1.545568   2.242143   1.757750   0.000000
     5  H    2.167459   2.506870   2.589766   1.070008   0.000000
     6  H    2.119606   2.646388   1.726889   1.069989   1.751966
     7  C    2.557681   3.509298   2.841830   1.538814   2.111415
     8  H    3.456234   4.331380   3.560628   2.132318   2.489207
     9  H    2.888095   3.763292   3.486789   2.141228   2.343424
    10  C    2.480136   3.444043   2.559650   2.980946   3.927618
    11  N    1.483847   2.181537   1.665425   2.678041   3.515853
    12  H    2.006090   2.441126   1.639656   3.148380   4.040830
    13  O    3.635397   4.508692   3.669600   4.238399   5.176595
    14  C    2.902788   3.970864   2.973300   2.544667   3.423244
    15  C    4.242685   5.305903   4.190215   3.735179   4.559430
    16  C    5.589855   6.648990   5.472380   5.010186   5.790817
    17  H    6.113358   7.138347   5.819443   5.480749   6.301258
    18  C    7.899143   8.963797   7.894222   7.176885   7.776216
    19  H    7.831509   8.873981   7.815360   6.922987   7.429906
    20  H    8.315267   9.375762   8.187080   7.642256   8.329051
    21  C    6.602158   7.671514   6.670247   6.064243   6.726117
    22  H    6.687027   7.744902   6.761050   6.390733   7.131564
    23  H    6.599509   7.651386   6.824818   6.014003   6.539155
    24  C    9.003507  10.065657   9.120777   8.336990   8.860099
    25  H    9.175751  10.237749   9.309949   8.678198   9.264353
    26  H    8.864760   9.905859   9.092913   8.156388   8.569749
    27  C   10.335863  11.396860  10.383137   9.564160  10.065309
    28  C   10.880565  11.918455  10.959261   9.957550  10.337905
    29  C   11.165144  12.233360  11.129380  10.475697  11.066090
    30  C   12.156227  13.190049  12.184192  11.184751  11.557716
    31  H   10.421843  11.434683  10.570455   9.435923   9.720363
    32  C   12.411149  13.474825  12.336961  11.647996  12.212968
    33  H   10.946422  12.014242  10.883246  10.390447  11.061140
    34  C   12.868288  13.918740  12.825580  11.973017  12.438456
    35  H   12.694416  13.704997  12.744047  11.636858  11.925959
    36  H   13.128911  14.192555  13.005017  12.423774  13.042296
    37  H   13.893454  14.938828  13.824305  12.964401  13.417864
                    6          7          8          9         10
     6  H    0.000000
     7  C    2.163622   0.000000
     8  H    2.397334   1.070000   0.000000
     9  H    3.022719   1.069993   1.751926   0.000000
    10  C    3.374749   2.629728   3.504968   3.006449   0.000000
    11  N    3.087357   3.084383   4.053776   3.420293   1.474829
    12  H    3.240664   3.733308   4.586759   4.249706   2.017804
    13  O    4.584065   3.745446   4.543108   4.016239   1.258377
    14  C    2.915227   1.524450   2.151086   2.096182   1.532998
    15  C    3.926717   2.503143   2.638413   2.997574   2.511166
    16  C    5.100387   3.725873   3.601572   4.153526   3.732603
    17  H    5.365792   4.351648   4.092578   4.947668   4.330018
    18  C    7.336931   5.731086   5.388171   5.886967   6.084819
    19  H    7.035641   5.492532   4.969564   5.679718   6.290068
    20  H    7.682288   6.283722   5.941150   6.576636   6.389458
    21  C    6.337400   4.622687   4.524442   4.727610   4.666180
    22  H    6.697570   5.031111   5.132041   5.112169   4.500618
    23  H    6.433291   4.498914   4.410264   4.375379   4.871063
    24  C    8.619966   6.830597   6.546465   6.788194   7.154747
    25  H    9.001067   7.192003   7.051875   7.120358   7.147681
    26  H    8.539878   6.621022   6.337847   6.431930   7.190746
    27  C    9.753392   8.079050   7.661315   8.103765   8.532104
    28  C   10.145358   8.478223   7.933841   8.460333   9.305460
    29  C   10.594397   9.031570   8.651053   9.140956   9.198773
    30  C   11.306592   9.735872   9.129055   9.765730  10.592837
    31  H    9.681047   7.957076   7.382512   7.858748   9.030813
    32  C   11.710722  10.220942   9.758397  10.360575  10.498801
    33  H   10.505660   8.979652   8.704385   9.120043   8.832708
    34  C   12.038995  10.539225   9.973638  10.641745  11.136494
    35  H   11.757986  10.210949   9.537078  10.212375  11.284957
    36  H   12.446036  11.026830  10.593752  11.212394  11.127487
    37  H   12.993953  11.550059  10.946269  11.673661  12.185482
                   11         12         13         14         15
    11  N    0.000000
    12  H    1.000020   0.000000
    13  O    2.355601   2.668156   0.000000
    14  C    2.635302   3.188791   2.406871   0.000000
    15  C    3.844247   4.266205   2.850431   1.355265   0.000000
    16  C    5.126564   5.468258   3.758443   2.710399   1.355134
    17  H    5.654513   5.831796   4.340131   3.375079   2.105061
    18  C    7.505240   7.934305   5.963801   5.013994   3.727539
    19  H    7.632994   8.073910   6.376043   5.031846   3.815224
    20  H    7.822671   8.131747   6.166656   5.423883   4.075102
    21  C    6.104835   6.587378   4.502446   3.727245   2.509003
    22  H    5.967973   6.417124   4.056971   3.900032   2.785022
    23  H    6.236838   6.853978   4.828447   3.859164   2.870025
    24  C    8.581408   9.097769   6.930907   6.165283   4.967658
    25  H    8.596693   9.100823   6.744559   6.356411   5.182424
    26  H    8.557848   9.170294   7.074672   6.141104   5.079256
    27  C    9.959646  10.422933   8.325661   7.476886   6.224819
    28  C   10.676777  11.182447   9.251799   8.107502   6.922809
    29  C   10.657757  11.032003   8.851824   8.266122   6.954206
    30  C   11.966074  12.430815  10.531626   9.380012   8.167930
    31  H   10.340719  10.910064   9.096840   7.760093   6.680494
    32  C   11.948661  12.295185  10.181622   9.517012   8.194117
    33  H   10.305098  10.632182   8.354349   8.053340   6.738115
    34  C   12.552732  12.945371  10.952088  10.020053   8.736176
    35  H   12.614232  13.104417  11.314470   9.999975   8.844106
    36  H   12.585477  12.874375  10.727051  10.229602   8.888074
    37  H   13.596104  13.967422  12.007457  11.055082   9.767534
                   16         17         18         19         20
    16  C    0.000000
    17  H    1.070027   0.000000
    18  C    2.514801   2.708483   0.000000
    19  H    2.732978   2.845938   1.070013   0.000000
    20  H    2.732943   2.545530   1.069998   1.747308   0.000000
    21  C    1.540007   2.272532   1.540007   2.148273   2.148269
    22  H    1.993639   2.682829   2.292500   3.118098   2.608083
    23  H    2.292500   3.162363   1.993639   2.349683   2.905433
    24  C    3.875579   4.204699   1.540000   2.148271   2.148272
    25  H    4.121302   4.498681   2.148263   3.022446   2.510347
    26  H    4.190580   4.701566   2.148263   2.429358   3.022442
    27  C    5.026902   5.100036   2.514809   2.786848   2.681570
    28  C    5.813605   5.889541   3.371724   3.208341   3.694863
    29  C    5.662946   5.560926   3.301845   3.759974   3.017327
    30  C    7.008974   6.948113   4.581592   4.380721   4.693281
    31  H    5.720036   5.924037   3.469701   3.090442   4.052494
    32  C    6.884076   6.671352   4.530040   4.799072   4.180366
    33  H    5.442623   5.325546   3.346964   4.052468   2.878881
    34  C    7.477914   7.292668   5.056287   5.055383   4.892580
    35  H    7.753633   7.706195   5.407469   5.045282   5.602992
    36  H    7.551623   7.256427   5.329869   5.685886   4.822949
    37  H    8.501447   8.256353   6.117710   6.070016   5.900303
                   21         22         23         24         25
    21  C    0.000000
    22  H    1.070000   0.000000
    23  H    1.070000   1.747303   0.000000
    24  C    2.514814   2.958061   2.487635   0.000000
    25  H    2.681565   2.715383   2.752860   1.070000   0.000000
    26  H    2.786843   3.332998   2.322492   1.070000   1.747303
    27  C    3.872073   4.343991   3.947621   1.540000   2.148263
    28  C    4.750897   5.406755   4.634370   2.542775   3.351308
    29  C    4.616145   4.869803   4.923649   2.542833   2.679742
    30  C    6.038696   6.666498   6.002557   3.828209   4.518331
    31  H    4.676725   5.449139   4.350996   2.741541   3.672331
    32  C    5.932891   6.238563   6.228304   3.828035   4.045195
    33  H    4.428341   4.452023   4.885785   2.741201   2.498042
    34  C    6.540551   7.020366   6.684824   4.330080   4.794074
    35  H    6.834644   7.542195   6.704463   4.707267   5.468806
    36  H    6.667564   6.857006   7.063735   4.707515   4.760997
    37  H    7.616210   8.096279   7.773974   5.429760   5.873700
                   26         27         28         29         30
    26  H    0.000000
    27  C    2.148263   0.000000
    28  C    2.649466   1.394829   0.000000
    29  C    3.375551   1.395138   2.416183   0.000000
    30  C    4.025492   2.416183   1.395160   2.789946   0.000000
    31  H    2.439983   2.165331   1.099610   3.413102   2.165553
    32  C    4.536293   2.416236   2.790065   1.394825   2.416260
    33  H    3.711301   2.165516   3.413055   1.099761   3.889707
    34  C    4.794155   2.790080   2.416205   2.416356   1.394712
    35  H    4.730327   3.412938   2.165414   3.889601   1.099655
    36  H    5.495602   3.413344   3.889745   2.165606   3.413024
    37  H    5.873835   3.889760   3.413229   3.413209   2.165375
                   31         32         33         34         35
    31  H    0.000000
    32  C    3.889675   0.000000
    33  H    4.320781   2.165528   0.000000
    34  C    3.412986   1.395427   3.413506   0.000000
    35  H    2.494427   3.413316   4.989362   2.165330   0.000000
    36  H    4.989355   1.099680   2.495147   2.165678   4.320917
    37  H    4.320860   2.165805   4.321228   1.099680   2.494768
                   36         37
    36  H    0.000000
    37  H    2.494678   0.000000
 Symmetry turned off by external request.
 Stoichiometry    C16H19NO
 Framework group  C1[X(C16H19NO)]
 Deg. of freedom   105
 Full point group                 C1      NOp   1
 Rotational constants (GHZ):           1.4283442           0.1042218           0.0994959
 Leave Link  202 at Wed Jul 10 11:17:53 2024, MaxMem=  2684354560 cpu:               0.1 elap:               0.1
 (Enter /mnt/data/applications/G16/g16/l301.exe)
 General basis read from cards:  (5D, 7F)
 Centers:       1      4      7     10     14     15     16     18     21     24
 Centers:      27     28     29     30     32     34      2      3      5      6
 Centers:       8      9     12     17     19     20     22     23     25     26
 Centers:      31     33     35     36     37     13     11
 cc-pVTZ
 ****
 ======================================================================================================
                                       Pseudopotential Parameters
 ======================================================================================================
  Center     Atomic      Valence      Angular      Power
  Number     Number     Electrons     Momentum     of R      Exponent        Coefficient   SO-Coeffient
 ======================================================================================================
    1          6
                                   No pseudopotential on this center.
    2          1
                                   No pseudopotential on this center.
    3          1
                                   No pseudopotential on this center.
    4          6
                                   No pseudopotential on this center.
    5          1
                                   No pseudopotential on this center.
    6          1
                                   No pseudopotential on this center.
    7          6
                                   No pseudopotential on this center.
    8          1
                                   No pseudopotential on this center.
    9          1
                                   No pseudopotential on this center.
   10          6
                                   No pseudopotential on this center.
   11          7
                                   No pseudopotential on this center.
   12          1
                                   No pseudopotential on this center.
   13          8
                                   No pseudopotential on this center.
   14          6
                                   No pseudopotential on this center.
   15          6
                                   No pseudopotential on this center.
   16          6
                                   No pseudopotential on this center.
   17          1
                                   No pseudopotential on this center.
   18          6
                                   No pseudopotential on this center.
   19          1
                                   No pseudopotential on this center.
   20          1
                                   No pseudopotential on this center.
   21          6
                                   No pseudopotential on this center.
   22          1
                                   No pseudopotential on this center.
   23          1
                                   No pseudopotential on this center.
   24          6
                                   No pseudopotential on this center.
   25          1
                                   No pseudopotential on this center.
   26          1
                                   No pseudopotential on this center.
   27          6
                                   No pseudopotential on this center.
   28          6
                                   No pseudopotential on this center.
   29          6
                                   No pseudopotential on this center.
   30          6
                                   No pseudopotential on this center.
   31          1
                                   No pseudopotential on this center.
   32          6
                                   No pseudopotential on this center.
   33          1
                                   No pseudopotential on this center.
   34          6
                                   No pseudopotential on this center.
   35          1
                                   No pseudopotential on this center.
   36          1
                                   No pseudopotential on this center.
   37          1
                                   No pseudopotential on this center.
 ======================================================================================================
 Ernie: Thresh=  0.10000D-02 Tol=  0.10000D-05 Strict=F.
 Ernie:  54 primitive shells out of 620 were deleted.
   806 basis functions,  1259 primitive gaussians,   915 cartesian basis functions
    65 alpha electrons       65 beta electrons
       nuclear repulsion energy      1127.4341843355 Hartrees.
 IExCor=  402 DFT=T Ex+Corr=B3LYP ExCW=0 ScaHFX=  0.200000
 ScaDFX=  0.800000  0.720000  1.000000  0.810000 ScalE2=  1.000000  1.000000
 IRadAn=      5 IRanWt=     -1 IRanGd=            0 ICorTp=0 IEmpDi=141
 NAtoms=   37 NActive=   37 NUniq=   37 SFac= 1.00D+00 NAtFMM=   60 NAOKFM=F Big=F
 Integral buffers will be    131072 words long.
 Raffenetti 2 integral format.
 Two-electron integral symmetry is turned off.
 R6Disp:  Grimme-D3(BJ) Dispersion energy=       -0.0680134841 Hartrees.
 Nuclear repulsion after empirical dispersion term =     1127.3661708514 Hartrees.
 ------------------------------------------------------------------------------
 Polarizable Continuum Model (PCM)
 =================================
 Model                : PCM.
 Atomic radii         : UFF (Universal Force Field).
 Polarization charges : Total charges.
 Charge compensation  : None.
 Solution method      : On-the-fly selection.
 Cavity type          : Scaled VdW (van der Waals Surface) (Alpha=1.100).
 Cavity algorithm     : GePol (No added spheres)
                        Default sphere list used, NSphG=   37.
                        Lebedev-Laikov grids with approx.  5.0 points / Ang**2.
                        Smoothing algorithm: York/Karplus (Gamma=1.0000).
                        Polarization charges: spherical gaussians, with
                                              point-specific exponents (IZeta= 3).
                        Self-potential: point-specific (ISelfS= 7).
                        Self-field    : sphere-specific E.n sum rule (ISelfD= 2).
 1st derivatives      : Analytical E(r).r(x)/FMM algorithm (CHGder, D1EAlg=3).
                        Cavity 1st derivative terms included.
 Solvent              : Acetonitrile, Eps=  35.688000 Eps(inf)=   1.806874
 ------------------------------------------------------------------------------
 GePol: Number of generator spheres                  =      37
 GePol: Total number of spheres                      =      37
 GePol: Number of exposed spheres                    =      37 (100.00%)
 GePol: Number of points                             =    2768
 GePol: Average weight of points                     =       0.13
 GePol: Minimum weight of points                     =   0.23D-09
 GePol: Maximum weight of points                     =    0.20577
 GePol: Number of points with low weight             =     192
 GePol: Fraction of low-weight points (<1% of avg)   =       6.94%
 GePol: Cavity surface area                          =    362.833 Ang**2
 GePol: Cavity volume                                =    376.233 Ang**3
 Leave Link  301 at Wed Jul 10 11:17:53 2024, MaxMem=  2684354560 cpu:               1.7 elap:               0.2
 (Enter /mnt/data/applications/G16/g16/l302.exe)
 NPDir=0 NMtPBC=     1 NCelOv=     1 NCel=       1 NClECP=     1 NCelD=      1
         NCelK=      1 NCelE2=     1 NClLst=     1 CellRange=     0.0.
 One-electron integrals computed using PRISM.
   1 Symmetry operations used in ECPInt.
 ECPInt:  NShTT=   43365 NPrTT=  161220 LenC2=   32892 LenP2D=   81112.
 LDataN:  DoStor=T MaxTD1= 6 Len=  172
 NBasis=   806 RedAO= T EigKep=  3.29D-05  NBF=   806
 NBsUse=   806 1.00D-06 EigRej= -1.00D+00 NBFU=   806
 Precomputing XC quadrature grid using
 IXCGrd= 4 IRadAn=           5 IRanWt=          -1 IRanGd=           0 AccXCQ= 0.00D+00.
 Generated NRdTot=       0 NPtTot=           0 NUsed=           0 NTot=          32
 NSgBfM=   891   891   891   891   891 MxSgAt=    37 MxSgA2=    37.
 Leave Link  302 at Wed Jul 10 11:17:57 2024, MaxMem=  2684354560 cpu:              43.1 elap:               3.6
 (Enter /mnt/data/applications/G16/g16/l303.exe)
 DipDrv:  MaxL=1.
 Leave Link  303 at Wed Jul 10 11:17:57 2024, MaxMem=  2684354560 cpu:               3.4 elap:               0.4
 (Enter /mnt/data/applications/G16/g16/l401.exe)
 ExpMin= 1.03D-01 ExpMax= 1.53D+04 ExpMxC= 5.22D+02 IAcc=3 IRadAn=         5 AccDes= 0.00D+00
 Harris functional with IExCor=  402 and IRadAn=       5 diagonalized for initial guess.
 HarFok:  IExCor=  402 AccDes= 0.00D+00 IRadAn=         5 IDoV= 1 UseB2=F ITyADJ=14
 ICtDFT=  3500011 ScaDFX=  1.000000  1.000000  1.000000  1.000000
 FoFCou: FMM=F IPFlag=           0 FMFlag=      100000 FMFlg1=           0
         NFxFlg=           0 DoJE=T BraDBF=F KetDBF=T FulRan=T
         wScrn=  0.000000 ICntrl=       500 IOpCl=  0 I1Cent=   200000004 NGrid=           0
         NMat0=    1 NMatS0=      1 NMatT0=    0 NMatD0=    1 NMtDS0=    0 NMtDT0=    0
 Symmetry not used in FoFCou.
 Harris En= -751.382596403038    
 JPrj=0 DoOrth=F DoCkMO=F.
 Leave Link  401 at Wed Jul 10 11:18:12 2024, MaxMem=  2684354560 cpu:             179.1 elap:              15.0
 (Enter /mnt/data/applications/G16/g16/l502.exe)
 Two-electron integral symmetry not used.
 Closed shell SCF:
 Using DIIS extrapolation, IDIIS=  1040.
 NGot=  2684354560 LenX=  2682663236 LenY=  2681825096
 Requested convergence on RMS density matrix=1.00D-08 within 128 cycles.
 Requested convergence on MAX density matrix=1.00D-06.
 Requested convergence on             energy=1.00D-06.
 No special actions if energy rises.
 Fock matrices will be formed incrementally for  20 cycles.

 Cycle   1  Pass 1  IDiag  1:
 FoFJK:  IHMeth= 1 ICntrl=       0 DoSepK=F KAlg= 0 I1Cent=           0 FoldK=F
 IRaf= 670000000 NMat=       1 IRICut=       1 DoRegI=T DoRafI=F ISym2E= 0 IDoP0=0 IntGTp=1.
 FoFCou: FMM=F IPFlag=           0 FMFlag=      100000 FMFlg1=           0
         NFxFlg=           0 DoJE=F BraDBF=F KetDBF=F FulRan=T
         wScrn=  0.000000 ICntrl=         0 IOpCl=  0 I1Cent=           0 NGrid=           0
         NMat0=    1 NMatS0=      1 NMatT0=    0 NMatD0=    1 NMtDS0=    0 NMtDT0=    0
 Symmetry not used in FoFCou.
 Inv3:  Mode=1 IEnd=    22985472.
 Iteration    1 A*A^-1 deviation from unit magnitude is 2.55D-15 for   2465.
 Iteration    1 A*A^-1 deviation from orthogonality  is 1.58D-15 for   2363   2115.
 Iteration    1 A^-1*A deviation from unit magnitude is 2.33D-15 for    105.
 Iteration    1 A^-1*A deviation from orthogonality  is 1.63D-15 for   2692   2683.
 E= -750.756707623515    
 DIIS: error= 1.92D-02 at cycle   1 NSaved=   1.
 NSaved= 1 IEnMin= 1 EnMin= -750.756707623515     IErMin= 1 ErrMin= 1.92D-02
 ErrMax= 1.92D-02  0.00D+00 EMaxC= 1.00D-01 BMatC= 5.75D-01 BMatP= 5.75D-01
 IDIUse=3 WtCom= 8.08D-01 WtEn= 1.92D-01
 Coeff-Com:  0.100D+01
 Coeff-En:   0.100D+01
 Coeff:      0.100D+01
 Gap=     0.149 Goal=   None    Shift=    0.000
 GapD=    0.149 DampG=1.000 DampE=0.500 DampFc=0.5000 IDamp=-1.
 Damping current iteration by 5.00D-01
 RMSDP=2.23D-03 MaxDP=2.36D-01              OVMax= 2.03D-01

 Cycle   2  Pass 1  IDiag  1:
 RMSU=  1.12D-03    CP:  9.96D-01
 E= -750.955987009701     Delta-E=       -0.199279386186 Rises=F Damp=T
 DIIS: error= 6.16D-03 at cycle   2 NSaved=   2.
 NSaved= 2 IEnMin= 2 EnMin= -750.955987009701     IErMin= 2 ErrMin= 6.16D-03
 ErrMax= 6.16D-03  0.00D+00 EMaxC= 1.00D-01 BMatC= 6.18D-02 BMatP= 5.75D-01
 IDIUse=3 WtCom= 9.38D-01 WtEn= 6.16D-02
 Coeff-Com:  0.126D+00 0.874D+00
 Coeff-En:   0.211D+00 0.789D+00
 Coeff:      0.132D+00 0.868D+00
 Gap=     0.206 Goal=   None    Shift=    0.000
 RMSDP=6.94D-04 MaxDP=8.17D-02 DE=-1.99D-01 OVMax= 2.50D-01

 Cycle   3  Pass 1  IDiag  1:
 RMSU=  4.89D-04    CP:  9.94D-01  5.60D-01
 E= -751.214370593692     Delta-E=       -0.258383583991 Rises=F Damp=F
 DIIS: error= 9.74D-03 at cycle   3 NSaved=   3.
 NSaved= 3 IEnMin= 3 EnMin= -751.214370593692     IErMin= 2 ErrMin= 6.16D-03
 ErrMax= 9.74D-03  0.00D+00 EMaxC= 1.00D-01 BMatC= 8.71D-02 BMatP= 6.18D-02
 IDIUse=3 WtCom= 9.20D-02 WtEn= 9.08D-01
 Coeff-Com: -0.179D-02 0.549D+00 0.453D+00
 Coeff-En:   0.000D+00 0.000D+00 0.100D+01
 Coeff:     -0.165D-03 0.505D-01 0.950D+00
 Gap=     0.178 Goal=   None    Shift=    0.000
 RMSDP=1.12D-03 MaxDP=1.23D-01 DE=-2.58D-01 OVMax= 2.90D-01

 Cycle   4  Pass 1  IDiag  1:
 RMSU=  4.66D-04    CP:  1.00D+00  1.24D+00 -3.76D-01
 E= -750.930813230525     Delta-E=        0.283557363168 Rises=F Damp=F
 DIIS: error= 2.42D-02 at cycle   4 NSaved=   4.
 NSaved= 4 IEnMin= 3 EnMin= -751.214370593692     IErMin= 2 ErrMin= 6.16D-03
 ErrMax= 2.42D-02  0.00D+00 EMaxC= 1.00D-01 BMatC= 4.47D-01 BMatP= 6.18D-02
 IDIUse=2 WtCom= 0.00D+00 WtEn= 1.00D+00
 Coeff-En:   0.000D+00 0.000D+00 0.781D+00 0.219D+00
 Coeff:      0.000D+00 0.000D+00 0.781D+00 0.219D+00
 Gap=     0.177 Goal=   None    Shift=    0.000
 RMSDP=6.83D-04 MaxDP=8.99D-02 DE= 2.84D-01 OVMax= 1.09D-01

 Cycle   5  Pass 1  IDiag  1:
 RMSU=  1.08D-04    CP:  9.97D-01  7.99D-01  4.01D-01  4.53D-01
 E= -751.257246713563     Delta-E=       -0.326433483038 Rises=F Damp=F
 DIIS: error= 6.36D-03 at cycle   5 NSaved=   5.
 NSaved= 5 IEnMin= 5 EnMin= -751.257246713563     IErMin= 2 ErrMin= 6.16D-03
 ErrMax= 6.36D-03  0.00D+00 EMaxC= 1.00D-01 BMatC= 3.17D-02 BMatP= 6.18D-02
 IDIUse=3 WtCom= 9.36D-01 WtEn= 6.36D-02
 Coeff-Com:  0.180D-02 0.727D-02 0.290D+00-0.848D-01 0.786D+00
 Coeff-En:   0.000D+00 0.000D+00 0.315D+00 0.000D+00 0.685D+00
 Coeff:      0.169D-02 0.681D-02 0.291D+00-0.794D-01 0.780D+00
 Gap=     0.175 Goal=   None    Shift=    0.000
 RMSDP=1.73D-04 MaxDP=1.75D-02 DE=-3.26D-01 OVMax= 2.95D-02

 Cycle   6  Pass 1  IDiag  1:
 RMSU=  2.31D-05    CP:  9.96D-01  7.04D-01  6.24D-01  2.92D-01  8.00D-01
 E= -751.281060646352     Delta-E=       -0.023813932789 Rises=F Damp=F
 DIIS: error= 3.04D-04 at cycle   6 NSaved=   6.
 NSaved= 6 IEnMin= 6 EnMin= -751.281060646352     IErMin= 6 ErrMin= 3.04D-04
 ErrMax= 3.04D-04  0.00D+00 EMaxC= 1.00D-01 BMatC= 1.31D-04 BMatP= 3.17D-02
 IDIUse=3 WtCom= 9.97D-01 WtEn= 3.04D-03
 Coeff-Com:  0.460D-03 0.341D-02 0.150D+00-0.553D-01 0.447D+00 0.454D+00
 Coeff-En:   0.000D+00 0.000D+00 0.000D+00 0.000D+00 0.000D+00 0.100D+01
 Coeff:      0.459D-03 0.340D-02 0.150D+00-0.551D-01 0.446D+00 0.455D+00
 Gap=     0.171 Goal=   None    Shift=    0.000
 RMSDP=1.19D-05 MaxDP=8.47D-04 DE=-2.38D-02 OVMax= 4.01D-03

 Cycle   7  Pass 1  IDiag  1:
 RMSU=  8.10D-06    CP:  9.96D-01  7.05D-01  6.22D-01  2.93D-01  8.27D-01
                    CP:  6.48D-01
 E= -751.281166722273     Delta-E=       -0.000106075920 Rises=F Damp=F
 DIIS: error= 1.20D-04 at cycle   7 NSaved=   7.
 NSaved= 7 IEnMin= 7 EnMin= -751.281166722273     IErMin= 7 ErrMin= 1.20D-04
 ErrMax= 1.20D-04  0.00D+00 EMaxC= 1.00D-01 BMatC= 2.37D-05 BMatP= 1.31D-04
 IDIUse=3 WtCom= 9.99D-01 WtEn= 1.20D-03
 Coeff-Com:  0.489D-03-0.248D-03 0.353D-01-0.158D-01 0.104D+00 0.241D+00
 Coeff-Com:  0.635D+00
 Coeff-En:   0.000D+00 0.000D+00 0.000D+00 0.000D+00 0.000D+00 0.114D+00
 Coeff-En:   0.886D+00
 Coeff:      0.488D-03-0.247D-03 0.353D-01-0.158D-01 0.104D+00 0.241D+00
 Coeff:      0.635D+00
 Gap=     0.171 Goal=   None    Shift=    0.000
 RMSDP=4.02D-06 MaxDP=3.87D-04 DE=-1.06D-04 OVMax= 1.52D-03

 Cycle   8  Pass 1  IDiag  1:
 RMSU=  2.46D-06    CP:  9.96D-01  7.03D-01  6.25D-01  2.91D-01  8.22D-01
                    CP:  7.11D-01  8.08D-01
 E= -751.281186912041     Delta-E=       -0.000020189768 Rises=F Damp=F
 DIIS: error= 3.85D-05 at cycle   8 NSaved=   8.
 NSaved= 8 IEnMin= 8 EnMin= -751.281186912041     IErMin= 8 ErrMin= 3.85D-05
 ErrMax= 3.85D-05  0.00D+00 EMaxC= 1.00D-01 BMatC= 2.22D-06 BMatP= 2.37D-05
 IDIUse=1 WtCom= 1.00D+00 WtEn= 0.00D+00
 Coeff-Com:  0.395D-03-0.995D-03 0.597D-02-0.270D-02 0.119D-01 0.870D-01
 Coeff-Com:  0.352D+00 0.546D+00
 Coeff:      0.395D-03-0.995D-03 0.597D-02-0.270D-02 0.119D-01 0.870D-01
 Coeff:      0.352D+00 0.546D+00
 Gap=     0.171 Goal=   None    Shift=    0.000
 RMSDP=1.43D-06 MaxDP=1.38D-04 DE=-2.02D-05 OVMax= 3.75D-04

 Cycle   9  Pass 1  IDiag  1:
 RMSU=  7.68D-07    CP:  9.96D-01  7.02D-01  6.26D-01  2.91D-01  8.21D-01
                    CP:  7.12D-01  8.27D-01  6.94D-01
 E= -751.281188827677     Delta-E=       -0.000001915636 Rises=F Damp=F
 DIIS: error= 6.50D-06 at cycle   9 NSaved=   9.
 NSaved= 9 IEnMin= 9 EnMin= -751.281188827677     IErMin= 9 ErrMin= 6.50D-06
 ErrMax= 6.50D-06  0.00D+00 EMaxC= 1.00D-01 BMatC= 8.21D-08 BMatP= 2.22D-06
 IDIUse=1 WtCom= 1.00D+00 WtEn= 0.00D+00
 Coeff-Com:  0.159D-03-0.454D-03 0.631D-03-0.246D-03-0.805D-03 0.236D-01
 Coeff-Com:  0.113D+00 0.253D+00 0.612D+00
 Coeff:      0.159D-03-0.454D-03 0.631D-03-0.246D-03-0.805D-03 0.236D-01
 Coeff:      0.113D+00 0.253D+00 0.612D+00
 Gap=     0.171 Goal=   None    Shift=    0.000
 RMSDP=3.53D-07 MaxDP=3.03D-05 DE=-1.92D-06 OVMax= 1.00D-04

 Cycle  10  Pass 1  IDiag  1:
 RMSU=  2.32D-07    CP:  9.96D-01  7.02D-01  6.26D-01  2.91D-01  8.21D-01
                    CP:  7.16D-01  8.39D-01  7.21D-01  7.55D-01
 E= -751.281188884962     Delta-E=       -0.000000057286 Rises=F Damp=F
 DIIS: error= 2.85D-06 at cycle  10 NSaved=  10.
 NSaved=10 IEnMin=10 EnMin= -751.281188884962     IErMin=10 ErrMin= 2.85D-06
 ErrMax= 2.85D-06  0.00D+00 EMaxC= 1.00D-01 BMatC= 2.07D-08 BMatP= 8.21D-08
 IDIUse=1 WtCom= 1.00D+00 WtEn= 0.00D+00
 Coeff-Com:  0.532D-04-0.158D-03-0.391D-03 0.167D-03-0.201D-02 0.545D-02
 Coeff-Com:  0.316D-01 0.981D-01 0.376D+00 0.491D+00
 Coeff:      0.532D-04-0.158D-03-0.391D-03 0.167D-03-0.201D-02 0.545D-02
 Coeff:      0.316D-01 0.981D-01 0.376D+00 0.491D+00
 Gap=     0.171 Goal=   None    Shift=    0.000
 RMSDP=1.29D-07 MaxDP=1.12D-05 DE=-5.73D-08 OVMax= 4.32D-05

 Cycle  11  Pass 1  IDiag  1:
 RMSU=  7.08D-08    CP:  9.96D-01  7.03D-01  6.26D-01  2.91D-01  8.21D-01
                    CP:  7.17D-01  8.40D-01  7.31D-01  7.89D-01  6.40D-01
 E= -751.281188902977     Delta-E=       -0.000000018014 Rises=F Damp=F
 DIIS: error= 1.42D-06 at cycle  11 NSaved=  11.
 NSaved=11 IEnMin=11 EnMin= -751.281188902977     IErMin=11 ErrMin= 1.42D-06
 ErrMax= 1.42D-06  0.00D+00 EMaxC= 1.00D-01 BMatC= 1.78D-09 BMatP= 2.07D-08
 IDIUse=1 WtCom= 1.00D+00 WtEn= 0.00D+00
 Coeff-Com:  0.712D-05-0.248D-04-0.364D-03 0.153D-03-0.117D-02 0.355D-03
 Coeff-Com:  0.400D-02 0.247D-01 0.123D+00 0.225D+00 0.624D+00
 Coeff:      0.712D-05-0.248D-04-0.364D-03 0.153D-03-0.117D-02 0.355D-03
 Coeff:      0.400D-02 0.247D-01 0.123D+00 0.225D+00 0.624D+00
 Gap=     0.171 Goal=   None    Shift=    0.000
 RMSDP=3.96D-08 MaxDP=3.36D-06 DE=-1.80D-08 OVMax= 1.38D-05

 Cycle  12  Pass 1  IDiag  1:
 RMSU=  2.85D-08    CP:  9.96D-01  7.03D-01  6.26D-01  2.91D-01  8.21D-01
                    CP:  7.17D-01  8.40D-01  7.32D-01  8.06D-01  6.89D-01
                    CP:  7.84D-01
 E= -751.281188904286     Delta-E=       -0.000000001310 Rises=F Damp=F
 DIIS: error= 5.76D-07 at cycle  12 NSaved=  12.
 NSaved=12 IEnMin=12 EnMin= -751.281188904286     IErMin=12 ErrMin= 5.76D-07
 ErrMax= 5.76D-07  0.00D+00 EMaxC= 1.00D-01 BMatC= 4.15D-10 BMatP= 1.78D-09
 IDIUse=1 WtCom= 1.00D+00 WtEn= 0.00D+00
 Coeff-Com: -0.575D-05 0.109D-04-0.158D-03 0.578D-04-0.327D-03-0.365D-03
 Coeff-Com: -0.225D-02 0.171D-03 0.160D-01 0.568D-01 0.378D+00 0.552D+00
 Coeff:     -0.575D-05 0.109D-04-0.158D-03 0.578D-04-0.327D-03-0.365D-03
 Coeff:     -0.225D-02 0.171D-03 0.160D-01 0.568D-01 0.378D+00 0.552D+00
 Gap=     0.171 Goal=   None    Shift=    0.000
 RMSDP=3.17D-08 MaxDP=3.17D-06 DE=-1.31D-09 OVMax= 4.81D-06

 Cycle  13  Pass 1  IDiag  1:
 RMSU=  8.89D-09    CP:  9.96D-01  7.03D-01  6.26D-01  2.91D-01  8.21D-01
                    CP:  7.17D-01  8.40D-01  7.34D-01  8.07D-01  6.96D-01
                    CP:  8.89D-01  7.34D-01
 E= -751.281188904598     Delta-E=       -0.000000000312 Rises=F Damp=F
 DIIS: error= 1.26D-07 at cycle  13 NSaved=  13.
 NSaved=13 IEnMin=13 EnMin= -751.281188904598     IErMin=13 ErrMin= 1.26D-07
 ErrMax= 1.26D-07  0.00D+00 EMaxC= 1.00D-01 BMatC= 2.49D-11 BMatP= 4.15D-10
 IDIUse=1 WtCom= 1.00D+00 WtEn= 0.00D+00
 Coeff-Com: -0.357D-05 0.681D-05-0.366D-04 0.131D-04-0.356D-04-0.131D-03
 Coeff-Com: -0.125D-02-0.203D-02-0.540D-02 0.270D-03 0.100D+00 0.211D+00
 Coeff-Com:  0.697D+00
 Coeff:     -0.357D-05 0.681D-05-0.366D-04 0.131D-04-0.356D-04-0.131D-03
 Coeff:     -0.125D-02-0.203D-02-0.540D-02 0.270D-03 0.100D+00 0.211D+00
 Coeff:      0.697D+00
 Gap=     0.171 Goal=   None    Shift=    0.000
 RMSDP=8.86D-09 MaxDP=8.01D-07 DE=-3.12D-10 OVMax= 1.30D-06

 Error on total polarization charges =  0.01780
 SCF Done:  E(RB3LYP) =  -751.281188905     A.U. after   13 cycles
            NFock= 13  Conv=0.89D-08     -V/T= 2.0073
 KE= 7.458572226574D+02 PE=-3.999025095122D+03 EE= 1.374520512708D+03
 Leave Link  502 at Wed Jul 10 11:41:18 2024, MaxMem=  2684354560 cpu:           16526.0 elap:            1385.2
 (Enter /mnt/data/applications/G16/g16/l601.exe)
 Copying SCF densities to generalized density rwf, IOpCl= 0 IROHF=0.

 **********************************************************************

            Population analysis using the SCF density.

 **********************************************************************

 Alpha  occ. eigenvalues --  -19.11302 -14.34794 -10.30197 -10.21412 -10.21302
 Alpha  occ. eigenvalues --  -10.20454 -10.18850 -10.18759 -10.18623 -10.18222
 Alpha  occ. eigenvalues --  -10.18178 -10.18159 -10.18147 -10.17931 -10.17875
 Alpha  occ. eigenvalues --  -10.17865 -10.17202 -10.17127  -1.03003  -0.93133
 Alpha  occ. eigenvalues --   -0.86220  -0.82857  -0.81248  -0.78285  -0.76121
 Alpha  occ. eigenvalues --   -0.74795  -0.72981  -0.68595  -0.65745  -0.62378
 Alpha  occ. eigenvalues --   -0.60788  -0.60665  -0.58251  -0.57773  -0.52072
 Alpha  occ. eigenvalues --   -0.51128  -0.49145  -0.48916  -0.48266  -0.47833
 Alpha  occ. eigenvalues --   -0.46138  -0.45940  -0.45112  -0.43606  -0.42773
 Alpha  occ. eigenvalues --   -0.42298  -0.41658  -0.41295  -0.40603  -0.40035
 Alpha  occ. eigenvalues --   -0.38055  -0.36644  -0.36379  -0.36053  -0.35304
 Alpha  occ. eigenvalues --   -0.34883  -0.34116  -0.33030  -0.32289  -0.27333
 Alpha  occ. eigenvalues --   -0.26662  -0.26026  -0.25421  -0.24906  -0.23219
 Alpha virt. eigenvalues --   -0.06089  -0.01643  -0.01439  -0.00897   0.01066
 Alpha virt. eigenvalues --    0.03821   0.04481   0.05422   0.06126   0.06317
 Alpha virt. eigenvalues --    0.06876   0.07284   0.07863   0.08797   0.08991
 Alpha virt. eigenvalues --    0.09790   0.10599   0.10955   0.11556   0.12175
 Alpha virt. eigenvalues --    0.13080   0.13994   0.14297   0.15050   0.15566
 Alpha virt. eigenvalues --    0.16391   0.16918   0.17449   0.18076   0.18525
 Alpha virt. eigenvalues --    0.20140   0.20831   0.21839   0.22717   0.23533
 Alpha virt. eigenvalues --    0.23855   0.23893   0.24516   0.25039   0.25542
 Alpha virt. eigenvalues --    0.25995   0.26562   0.27594   0.27931   0.28044
 Alpha virt. eigenvalues --    0.28591   0.29401   0.30173   0.30401   0.30860
 Alpha virt. eigenvalues --    0.31423   0.32086   0.32432   0.33091   0.34009
 Alpha virt. eigenvalues --    0.35491   0.35727   0.36265   0.36632   0.36837
 Alpha virt. eigenvalues --    0.37556   0.38134   0.38492   0.38771   0.39610
 Alpha virt. eigenvalues --    0.39766   0.39991   0.40577   0.41247   0.41920
 Alpha virt. eigenvalues --    0.42181   0.42373   0.42776   0.42905   0.43551
 Alpha virt. eigenvalues --    0.44079   0.44601   0.44913   0.45395   0.45698
 Alpha virt. eigenvalues --    0.46495   0.46627   0.46848   0.47310   0.47439
 Alpha virt. eigenvalues --    0.48417   0.48507   0.48803   0.48974   0.49220
 Alpha virt. eigenvalues --    0.49694   0.50363   0.50651   0.51128   0.51450
 Alpha virt. eigenvalues --    0.52266   0.52662   0.53198   0.53258   0.54027
 Alpha virt. eigenvalues --    0.54485   0.55058   0.55632   0.55970   0.56515
 Alpha virt. eigenvalues --    0.57048   0.58936   0.59351   0.59498   0.61865
 Alpha virt. eigenvalues --    0.62992   0.63503   0.64095   0.64592   0.65315
 Alpha virt. eigenvalues --    0.66763   0.67123   0.68893   0.69874   0.70477
 Alpha virt. eigenvalues --    0.71205   0.71611   0.72566   0.73036   0.73471
 Alpha virt. eigenvalues --    0.73871   0.74328   0.75285   0.75832   0.76562
 Alpha virt. eigenvalues --    0.76752   0.77616   0.77914   0.78858   0.79418
 Alpha virt. eigenvalues --    0.80047   0.80427   0.80917   0.81555   0.81963
 Alpha virt. eigenvalues --    0.82807   0.84965   0.85333   0.86509   0.87398
 Alpha virt. eigenvalues --    0.87595   0.88738   0.90201   0.90874   0.91435
 Alpha virt. eigenvalues --    0.91588   0.92551   0.93110   0.93357   0.94344
 Alpha virt. eigenvalues --    0.94362   0.95571   0.96221   0.97428   0.97994
 Alpha virt. eigenvalues --    0.98876   0.99472   0.99874   1.00843   1.01023
 Alpha virt. eigenvalues --    1.02263   1.03648   1.04647   1.04800   1.05106
 Alpha virt. eigenvalues --    1.05647   1.06375   1.06646   1.07562   1.07817
 Alpha virt. eigenvalues --    1.08619   1.09038   1.09474   1.11010   1.11956
 Alpha virt. eigenvalues --    1.12124   1.12614   1.13994   1.14329   1.15289
 Alpha virt. eigenvalues --    1.15466   1.16204   1.16865   1.17384   1.17730
 Alpha virt. eigenvalues --    1.18257   1.19137   1.19587   1.19998   1.20644
 Alpha virt. eigenvalues --    1.21270   1.21687   1.22688   1.23613   1.24437
 Alpha virt. eigenvalues --    1.24655   1.24940   1.25126   1.26403   1.26847
 Alpha virt. eigenvalues --    1.27212   1.28449   1.29264   1.30061   1.30167
 Alpha virt. eigenvalues --    1.31110   1.31508   1.31757   1.32317   1.32896
 Alpha virt. eigenvalues --    1.33094   1.34219   1.34939   1.35459   1.35897
 Alpha virt. eigenvalues --    1.36226   1.36867   1.37954   1.38597   1.39072
 Alpha virt. eigenvalues --    1.39627   1.39732   1.40482   1.41577   1.41758
 Alpha virt. eigenvalues --    1.42450   1.43112   1.43925   1.44700   1.45819
 Alpha virt. eigenvalues --    1.46333   1.46901   1.48126   1.48306   1.48870
 Alpha virt. eigenvalues --    1.49825   1.51155   1.51438   1.52357   1.53782
 Alpha virt. eigenvalues --    1.55103   1.56284   1.56817   1.57730   1.58975
 Alpha virt. eigenvalues --    1.59336   1.61210   1.61554   1.62317   1.63996
 Alpha virt. eigenvalues --    1.65172   1.66251   1.67588   1.68964   1.70044
 Alpha virt. eigenvalues --    1.70953   1.71740   1.73486   1.73808   1.76343
 Alpha virt. eigenvalues --    1.77124   1.78752   1.81703   1.85901   1.86360
 Alpha virt. eigenvalues --    1.89958   1.91841   1.92280   1.93519   1.95772
 Alpha virt. eigenvalues --    1.98428   1.99921   2.03614   2.05098   2.08763
 Alpha virt. eigenvalues --    2.09289   2.10053   2.12931   2.13496   2.14405
 Alpha virt. eigenvalues --    2.15107   2.15920   2.18282   2.19358   2.20579
 Alpha virt. eigenvalues --    2.22391   2.23342   2.24178   2.26676   2.27587
 Alpha virt. eigenvalues --    2.29498   2.30809   2.31121   2.32088   2.33401
 Alpha virt. eigenvalues --    2.33627   2.35176   2.36669   2.37855   2.37968
 Alpha virt. eigenvalues --    2.38744   2.39179   2.39866   2.42651   2.42737
 Alpha virt. eigenvalues --    2.43915   2.44493   2.44976   2.45739   2.46161
 Alpha virt. eigenvalues --    2.46874   2.48222   2.48750   2.49599   2.50407
 Alpha virt. eigenvalues --    2.51073   2.51286   2.52791   2.53415   2.54787
 Alpha virt. eigenvalues --    2.55648   2.56215   2.57409   2.58087   2.58328
 Alpha virt. eigenvalues --    2.58878   2.59370   2.59926   2.60981   2.62140
 Alpha virt. eigenvalues --    2.62886   2.64416   2.65018   2.65928   2.66185
 Alpha virt. eigenvalues --    2.66438   2.66994   2.67303   2.68706   2.69272
 Alpha virt. eigenvalues --    2.69904   2.70696   2.70875   2.71480   2.73085
 Alpha virt. eigenvalues --    2.73308   2.73502   2.73911   2.74571   2.74648
 Alpha virt. eigenvalues --    2.76509   2.77012   2.78673   2.79511   2.80070
 Alpha virt. eigenvalues --    2.80922   2.82126   2.82349   2.82712   2.84560
 Alpha virt. eigenvalues --    2.84921   2.85722   2.87008   2.87329   2.87860
 Alpha virt. eigenvalues --    2.88112   2.89751   2.90414   2.90925   2.91435
 Alpha virt. eigenvalues --    2.92282   2.92737   2.93065   2.93662   2.94412
 Alpha virt. eigenvalues --    2.95333   2.95955   2.96840   2.97100   2.97800
 Alpha virt. eigenvalues --    2.98230   2.98682   2.99530   2.99977   3.00386
 Alpha virt. eigenvalues --    3.01108   3.01767   3.02376   3.02942   3.03338
 Alpha virt. eigenvalues --    3.03946   3.04358   3.04865   3.05005   3.05563
 Alpha virt. eigenvalues --    3.05824   3.06508   3.06897   3.07446   3.07722
 Alpha virt. eigenvalues --    3.08029   3.08814   3.09101   3.09924   3.10274
 Alpha virt. eigenvalues --    3.10720   3.11656   3.12522   3.12802   3.14091
 Alpha virt. eigenvalues --    3.14362   3.14880   3.16158   3.16515   3.16705
 Alpha virt. eigenvalues --    3.17079   3.17925   3.18211   3.18535   3.19279
 Alpha virt. eigenvalues --    3.20000   3.20775   3.20973   3.22285   3.22375
 Alpha virt. eigenvalues --    3.22969   3.23407   3.23851   3.24825   3.25958
 Alpha virt. eigenvalues --    3.26464   3.27104   3.28252   3.29512   3.29917
 Alpha virt. eigenvalues --    3.30663   3.31210   3.31949   3.32330   3.32837
 Alpha virt. eigenvalues --    3.33043   3.34157   3.35152   3.35669   3.36128
 Alpha virt. eigenvalues --    3.36746   3.37156   3.37638   3.38186   3.38634
 Alpha virt. eigenvalues --    3.39784   3.40607   3.40683   3.41003   3.42083
 Alpha virt. eigenvalues --    3.42936   3.43144   3.44158   3.45007   3.46235
 Alpha virt. eigenvalues --    3.47487   3.47957   3.49503   3.50419   3.52623
 Alpha virt. eigenvalues --    3.53227   3.53875   3.55389   3.56893   3.57090
 Alpha virt. eigenvalues --    3.57499   3.58506   3.59153   3.60747   3.62215
 Alpha virt. eigenvalues --    3.63276   3.63965   3.64467   3.64872   3.65827
 Alpha virt. eigenvalues --    3.66134   3.67441   3.68500   3.69081   3.69601
 Alpha virt. eigenvalues --    3.71096   3.71411   3.72297   3.73379   3.74333
 Alpha virt. eigenvalues --    3.74451   3.75027   3.75268   3.75554   3.76004
 Alpha virt. eigenvalues --    3.76429   3.76640   3.77023   3.77502   3.78197
 Alpha virt. eigenvalues --    3.79490   3.80056   3.80893   3.82102   3.82445
 Alpha virt. eigenvalues --    3.83186   3.83525   3.83802   3.84494   3.85898
 Alpha virt. eigenvalues --    3.86449   3.86661   3.87315   3.87979   3.89224
 Alpha virt. eigenvalues --    3.89848   3.90615   3.90885   3.91398   3.92034
 Alpha virt. eigenvalues --    3.93200   3.94188   3.95037   3.95268   3.96878
 Alpha virt. eigenvalues --    3.97018   3.98330   3.98845   3.99593   4.00132
 Alpha virt. eigenvalues --    4.00752   4.01543   4.02154   4.02425   4.03060
 Alpha virt. eigenvalues --    4.04385   4.05194   4.05883   4.06688   4.06984
 Alpha virt. eigenvalues --    4.07674   4.07933   4.08257   4.08656   4.10936
 Alpha virt. eigenvalues --    4.11458   4.11802   4.12685   4.13824   4.14136
 Alpha virt. eigenvalues --    4.15545   4.16146   4.16606   4.17421   4.18347
 Alpha virt. eigenvalues --    4.18585   4.19325   4.21101   4.21196   4.21706
 Alpha virt. eigenvalues --    4.22739   4.24160   4.24637   4.25051   4.25639
 Alpha virt. eigenvalues --    4.26680   4.27251   4.28069   4.29021   4.29588
 Alpha virt. eigenvalues --    4.30257   4.31133   4.31949   4.32765   4.33083
 Alpha virt. eigenvalues --    4.33295   4.34316   4.35633   4.35858   4.36106
 Alpha virt. eigenvalues --    4.37490   4.37915   4.39984   4.40210   4.41394
 Alpha virt. eigenvalues --    4.42757   4.45561   4.47000   4.47966   4.49992
 Alpha virt. eigenvalues --    4.50579   4.51134   4.51591   4.53917   4.54781
 Alpha virt. eigenvalues --    4.56916   4.56942   4.59256   4.60199   4.61845
 Alpha virt. eigenvalues --    4.62188   4.64551   4.65480   4.66348   4.67895
 Alpha virt. eigenvalues --    4.69096   4.69684   4.70393   4.71845   4.72878
 Alpha virt. eigenvalues --    4.73901   4.74942   4.75445   4.75768   4.77798
 Alpha virt. eigenvalues --    4.78795   4.80766   4.80917   4.82410   4.83796
 Alpha virt. eigenvalues --    4.85196   4.87833   4.88608   4.89799   4.90275
 Alpha virt. eigenvalues --    4.92474   4.93279   4.94922   4.95425   4.96236
 Alpha virt. eigenvalues --    4.97276   4.98398   4.99301   4.99785   5.00845
 Alpha virt. eigenvalues --    5.02485   5.03246   5.04712   5.05267   5.06509
 Alpha virt. eigenvalues --    5.07792   5.09155   5.09978   5.10165   5.12207
 Alpha virt. eigenvalues --    5.12794   5.14046   5.15348   5.16182   5.16819
 Alpha virt. eigenvalues --    5.17163   5.18060   5.20217   5.20512   5.21398
 Alpha virt. eigenvalues --    5.22760   5.27828   5.29566   5.30214   5.30609
 Alpha virt. eigenvalues --    5.32915   5.33069   5.34728   5.35239   5.37195
 Alpha virt. eigenvalues --    5.38365   5.40208   5.40666   5.41920   5.43470
 Alpha virt. eigenvalues --    5.45370   5.47007   5.47550   5.48757   5.49469
 Alpha virt. eigenvalues --    5.52923   5.53637   5.54463   5.55667   5.57907
 Alpha virt. eigenvalues --    5.59169   5.61845   5.64149   5.64414   5.64592
 Alpha virt. eigenvalues --    5.66072   5.68096   5.70656   5.71742   5.72131
 Alpha virt. eigenvalues --    5.73085   5.77296   5.78468   5.79361   5.89282
 Alpha virt. eigenvalues --    5.90257   5.91285   5.93630   5.98602   5.99348
 Alpha virt. eigenvalues --    6.00808   6.01164   6.03079   6.04244   6.04957
 Alpha virt. eigenvalues --    6.05927   6.11447   6.11640   6.24243   6.34951
 Alpha virt. eigenvalues --    6.36786   6.44416   6.57993   6.58507   6.77639
 Alpha virt. eigenvalues --    6.82180   6.99739   7.03207   8.27435   8.70385
 Alpha virt. eigenvalues --    9.91645  11.76025  11.98398  12.09109  12.41909
 Alpha virt. eigenvalues --   12.63044  12.67234  12.86952  12.91763  13.00953
 Alpha virt. eigenvalues --   13.03147  13.12568  13.40694  13.47191  13.56346
 Alpha virt. eigenvalues --   15.30289
          Condensed to atoms (all electrons):
               1          2          3          4          5          6
     1  C    5.046724   0.422072   0.389225   0.305652  -0.031560  -0.059388
     2  H    0.422072   0.543331  -0.036450  -0.036378  -0.007773   0.006281
     3  H    0.389225  -0.036450   0.691887  -0.052769   0.010280  -0.046196
     4  C    0.305652  -0.036378  -0.052769   4.914985   0.404504   0.451534
     5  H   -0.031560  -0.007773   0.010280   0.404504   0.579663  -0.041035
     6  H   -0.059388   0.006281  -0.046196   0.451534  -0.041035   0.612064
     7  C   -0.037800   0.003646   0.007725   0.315358  -0.023891  -0.040314
     8  H    0.007480  -0.000258  -0.001197  -0.028921  -0.004261  -0.005512
     9  H   -0.002638   0.000312  -0.000669  -0.031530  -0.008581   0.008325
    10  C   -0.061103   0.002006   0.002369   0.000550   0.000258   0.001216
    11  N    0.243149  -0.016472  -0.089129  -0.030065   0.002017   0.008907
    12  H   -0.041309  -0.000569  -0.032605   0.008118  -0.000563   0.001026
    13  O    0.002812  -0.000197  -0.001016  -0.000478   0.000016   0.000020
    14  C    0.014766  -0.001351   0.000668  -0.040159   0.007285  -0.004622
    15  C   -0.003553   0.000201  -0.000388   0.001695  -0.000473   0.002827
    16  C   -0.000210   0.000003  -0.000069   0.000080  -0.000014   0.000233
    17  H    0.000004   0.000000  -0.000005   0.000036  -0.000002  -0.000006
    18  C   -0.000000   0.000000  -0.000000   0.000001  -0.000000   0.000000
    19  H   -0.000000  -0.000000  -0.000000   0.000000  -0.000000   0.000000
    20  H   -0.000000   0.000000  -0.000000   0.000000   0.000000   0.000000
    21  C   -0.000005   0.000000   0.000001  -0.000007   0.000001   0.000004
    22  H   -0.000002   0.000000   0.000001   0.000004  -0.000000  -0.000001
    23  H    0.000001   0.000000  -0.000000   0.000000  -0.000000   0.000000
    24  C   -0.000000   0.000000   0.000000   0.000000   0.000000   0.000000
    25  H    0.000000  -0.000000  -0.000000   0.000000  -0.000000   0.000000
    26  H   -0.000000  -0.000000   0.000000  -0.000000   0.000000   0.000000
    27  C   -0.000000   0.000000   0.000000   0.000000  -0.000000   0.000000
    28  C   -0.000000   0.000000   0.000000  -0.000000   0.000000  -0.000000
    29  C   -0.000000   0.000000   0.000000  -0.000000  -0.000000  -0.000000
    30  C    0.000000   0.000000   0.000000   0.000000   0.000000  -0.000000
    31  H   -0.000000   0.000000   0.000000  -0.000000   0.000000   0.000000
    32  C   -0.000000   0.000000   0.000000  -0.000000   0.000000  -0.000000
    33  H   -0.000000   0.000000   0.000000  -0.000000   0.000000   0.000000
    34  C    0.000000  -0.000000   0.000000   0.000000   0.000000   0.000000
    35  H   -0.000000  -0.000000   0.000000  -0.000000   0.000000   0.000000
    36  H   -0.000000   0.000000   0.000000  -0.000000   0.000000   0.000000
    37  H    0.000000   0.000000  -0.000000   0.000000   0.000000  -0.000000
               7          8          9         10         11         12
     1  C   -0.037800   0.007480  -0.002638  -0.061103   0.243149  -0.041309
     2  H    0.003646  -0.000258   0.000312   0.002006  -0.016472  -0.000569
     3  H    0.007725  -0.001197  -0.000669   0.002369  -0.089129  -0.032605
     4  C    0.315358  -0.028921  -0.031530   0.000550  -0.030065   0.008118
     5  H   -0.023891  -0.004261  -0.008581   0.000258   0.002017  -0.000563
     6  H   -0.040314  -0.005512   0.008325   0.001216   0.008907   0.001026
     7  C    4.857359   0.412994   0.412829  -0.017743  -0.002622  -0.001656
[...]
 ,0.00000006,0.00000051,-0.00000003,-0.00000095,-0.00000424,0.00000389,
 -0.00000009,-0.00000009,0.00000018,-0.00000122,-0.00000008,-0.00000100
 ,-0.00000208,0.00000097,-0.00000712,0.00000037,0.00000093,0.00000123,-
 0.00000034,-0.00000057,0.00000032,0.00000223,0.00000128,0.00000259,-0.
 00000393,-0.00000053,-0.00000064,0.00000094,0.00001028,-0.00000577,-0.
 00000592,0.00002109,0.00005236,0.00000094,0.00000161,-0.00000142,-0.00
 011630,0.00016488,0.00046479,0.00007874,-0.00005618,-0.00002741,-0.000
 11142,0.00017629,-0.00003607,-0.00002672,0.00019766,-0.00010691,0.0000
 0352,-0.00000156,0.00000376,0.00000063,-0.00003481,-0.00002815,-0.0000
 9430,0.00114843,-0.00236833,0.00005660,0.00027205,0.00074861,0.0004102
 5,-0.00009562,-0.00010811,-0.01401166,-0.01776271,-0.00651349,-0.00100
 215,-0.00155382,0.00527384,-0.19258010,-0.13755397,-0.03292829,-0.0002
 4347,0.00076969,0.00040426,-0.00076318,-0.00090893,-0.00024669,0.00501
 731,0.00255943,0.00172182,0.20088788,0.00000054,0.00000007,-0.00000020
 ,-0.00000019,-0.00000020,-0.00000006,-0.00000022,0.00000025,0.00000016
 ,-0.00000051,-0.00000100,-0.00000027,-0.00000046,0.00000026,-0.0000000
 2,0.00000012,0.00000009,-0.00000003,0.00000013,0.00000189,0.,0.0000000
 2,-0.00000012,0.00000032,-0.00000036,-0.00000025,-0.00000032,-0.000001
 22,-0.00000644,-0.00000739,-0.00000107,0.00000182,0.00000249,-0.000000
 23,0.00000007,-0.00000019,0.00000207,0.00000211,0.00000410,-0.00000223
 ,0.00000310,0.00000432,0.00000610,0.00000048,-0.00000418,-0.00000733,-
 0.00000699,-0.00000924,-0.00000164,0.00000173,-0.00000032,0.00013769,0
 .00004601,-0.00014242,-0.00001107,0.00000278,-0.00000799,0.00001917,-0
 .00005968,-0.00002719,-0.00002722,-0.00007098,0.00003695,-0.00000267,-
 0.00000064,-0.00000246,-0.00000211,0.00000602,0.00001137,0.00179418,-0
 .00183882,0.00074275,0.00032303,0.00050303,0.00045071,0.00000318,0.000
 15130,0.00023606,-0.00259917,0.00087072,-0.00168039,-0.00207215,0.0040
 0830,-0.00152261,-0.13733901,-0.16994525,-0.04439668,0.00062483,-0.000
 21444,0.00025414,-0.00008456,0.00000272,-0.00009775,-0.01364631,-0.008
 45669,-0.00213446,0.15226233,0.17475329,0.00000331,0.00000026,0.000001
 03,-0.00000088,-0.00000047,-0.00000054,-0.00000087,0.00000042,0.000000
 19,-0.00000181,-0.00000382,-0.00000137,-0.00000190,0.00000115,0.,0.000
 00054,0.00000075,0.00000003,-0.00000092,-0.00000133,0.00000933,0.00000
 012,0.00000033,-0.00000068,-0.00000480,-0.00000105,-0.00000167,0.00000
 101,-0.00001235,-0.00002560,-0.00000624,0.00000707,0.00000832,-0.00000
 134,-0.00000063,0.00000005,0.00000187,0.00000628,0.00000961,-0.0000127
 8,0.00000542,0.00001030,0.00001686,0.00001618,-0.00001863,-0.00000781,
 0.00001209,0.00006052,-0.00000053,0.00000176,-0.00000338,-0.00000364,0
 .00004336,0.00022414,-0.00004275,0.00002553,0.00001449,-0.00000231,0.0
 0004906,0.00001326,-0.00002433,0.00010088,-0.00010288,0.00000289,-0.00
 000176,-0.00000235,-0.00000499,-0.00001034,-0.00000201,-0.00012045,0.0
 0232683,0.00027957,-0.00043511,-0.00016521,-0.00033290,-0.00015436,-0.
 00016237,-0.00004488,0.01428244,0.01250949,0.00671434,0.00492047,-0.00
 172015,-0.00045365,-0.03344480,-0.04429462,-0.06425289,0.00025586,0.00
 006439,-0.00104548,0.00076703,0.00066092,0.00037161,-0.01991841,-0.017
 91961,-0.00120733,0.03340336,0.05165364,0.06228062,0.00000046,-0.00000
 001,-0.00000015,-0.00000014,-0.00000015,-0.00000011,-0.00000021,0.0000
 0021,0.00000018,-0.00000092,-0.00000135,-0.00000035,-0.00000051,0.0000
 0044,0.00000002,0.00000010,0.00000023,-0.00000005,-0.00000080,0.000002
 20,0.00000182,0.00000031,-0.00000012,0.00000032,-0.00000067,-0.0000000
 6,-0.00000043,-0.00000053,-0.00000511,-0.00000550,-0.00000089,0.000001
 84,0.00000212,-0.00000032,0.00000002,-0.00000007,0.00000096,0.00000237
 ,0.00000361,-0.00000488,-0.00000206,-0.00000100,-0.00000486,0.00000002
 ,-0.00000489,0.00001219,0.00000134,0.00002395,-0.00000025,-0.00000080,
 0.00000126,0.00072313,0.00037882,-0.00004256,0.00033039,-0.00035329,0.
 00008642,-0.00015381,0.00046094,-0.00016324,0.00032453,0.00023841,-0.0
 0012794,-0.00003161,0.00005278,0.00005040,0.00000113,-0.00007144,-0.00
 003940,-0.00150903,-0.00022105,0.00001784,0.00047913,-0.00003943,0.000
 12488,0.00015297,0.00029703,-0.00038819,-0.05415002,-0.02512640,0.0128
 3007,0.02065664,0.04734664,0.05235594,0.03263197,-0.02533134,-0.058594
 81,-0.23339587,-0.05486204,0.09170879,0.00342454,-0.00239294,0.0008145
 5,-0.21369413,-0.10137170,0.00916244,0.00311925,-0.00090283,0.00289799
 ,0.52221976,-0.00000735,-0.00000114,-0.00000146,0.00000215,0.00000126,
 0.00000090,0.00000187,-0.00000096,-0.00000047,0.00000374,0.00000828,0.
 00000305,0.00000413,-0.00000267,0.00000014,-0.00000116,-0.00000108,-0.
 00000014,0.00000126,0.00000436,-0.00002109,-0.00000047,-0.00000125,0.0
 0000115,0.00001157,0.00000271,0.00000362,-0.00000009,0.00002615,0.0000
 6234,0.00001316,-0.00001493,-0.00002014,0.00000301,0.00000103,0.000000
 15,-0.00000566,-0.00001389,-0.00002460,0.00002906,-0.00001361,-0.00002
 196,-0.00005878,-0.00003510,0.00003813,0.00002907,-0.00003436,-0.00013
 247,0.00000340,-0.00000130,0.00001062,0.00002232,0.00042031,-0.0007747
 2,0.00024286,-0.00014978,0.00009065,-0.00011908,0.00021434,-0.00001016
 ,0.00030076,-0.00002949,0.00013545,-0.00002940,0.00002028,0.00002054,0
 .00000798,-0.00003346,-0.00003670,0.00017466,-0.00153945,0.00064135,0.
 00024683,0.00007735,0.00007857,0.00000944,0.00021193,-0.00017599,-0.02
 530593,-0.01659363,0.01114532,0.02378578,0.02859122,0.00424090,-0.0016
 7497,-0.02599701,-0.04491008,-0.02160805,-0.10079291,-0.02628046,-0.00
 181051,0.00166369,-0.00588164,-0.13473364,-0.18972103,-0.03496961,-0.0
 0149255,0.00268370,-0.00491440,0.17737131,0.43543357,-0.00000989,-0.00
 000113,-0.00000256,0.00000273,0.00000156,0.00000139,0.00000252,-0.0000
 0127,-0.00000062,0.00000610,0.00001176,0.00000450,0.00000601,-0.000003
 81,-0.00000005,-0.00000164,-0.00000189,-0.00000019,0.00000188,0.000001
 54,-0.00002881,-0.00000090,-0.00000127,0.00000184,0.00001440,0.0000032
 7,0.00000471,-0.00000109,0.00003814,0.00007782,0.00001767,-0.00002076,
 -0.00002580,0.00000414,0.00000136,0.00000008,-0.00000612,-0.00001934,-
 0.00003105,0.00003854,-0.00001727,-0.00002596,-0.00006926,-0.00003736,
 0.00005369,0.00002285,-0.00003349,-0.00016603,0.00000512,-0.00000284,0
 .00001125,-0.00060411,0.00022857,-0.00070639,-0.00005749,0.00017777,0.
 00002081,-0.00001543,-0.00010752,0.00011980,0.00002400,-0.00016968,0.0
 0027548,-0.00000576,-0.00003091,-0.00003415,0.00000817,0.00001759,-0.0
 0001877,0.00068919,-0.00064443,-0.00056776,-0.00005201,0.00001002,-0.0
 0025132,-0.00017851,-0.00021115,-0.00006241,0.01245524,0.01192269,-0.0
 0388585,0.01952877,-0.01968241,-0.03732209,-0.02560138,-0.02126721,0.0
 0533141,0.13552472,0.00620903,-0.18909296,0.00155956,-0.00531198,-0.00
 119475,-0.03489772,-0.06704900,-0.12018595,0.00214672,-0.00545469,-0.0
 0191619,-0.14064533,0.22594397,0.57265561,-0.00000168,-0.00000026,-0.0
 0000020,0.00000050,0.00000039,0.00000022,0.00000048,-0.00000036,-0.000
 00020,0.00000073,0.00000195,0.00000055,0.00000098,-0.00000055,0.000000
 08,-0.00000025,-0.00000033,0.,0.00000039,0.00000014,-0.00000393,-0.000
 00012,-0.00000006,-0.00000010,0.00000222,0.00000062,0.00000091,-0.0000
 0029,0.00000736,0.00001473,0.00000331,-0.00000373,-0.00000488,0.000000
 64,0.00000024,0.00000010,-0.00000145,-0.00000355,-0.00000611,0.0000064
 4,-0.00000339,-0.00000535,-0.00001043,-0.00000524,0.00000811,0.0000004
 0,-0.00000320,-0.00002290,0.00000089,-0.00000025,0.00000194,-0.0000310
 8,0.00001713,-0.00007442,0.00000097,0.00001506,0.00000443,-0.00000296,
 0.00000072,0.00000301,0.00002310,-0.00001923,0.00001530,0.00000002,-0.
 00000418,-0.00000116,0.00000226,-0.00000003,-0.00000479,0.00007051,0.0
 0011918,0.00029016,-0.00002247,0.00002935,0.00000430,0.00000998,-0.000
 01050,-0.00004990,0.00309705,-0.00156389,0.00227385,0.00503572,0.00242
 889,0.00168490,-0.00014993,0.00074786,0.00026071,-0.19321534,-0.139639
 95,-0.03258055,-0.00048028,0.00153079,-0.00164598,-0.00076036,-0.00172
 874,0.00553736,-0.00030993,0.00031781,-0.00040881,-0.01307984,-0.01730
 690,-0.00673100,0.20066374,-0.00000381,-0.00000053,-0.00000126,0.00000
 106,0.00000059,0.00000037,0.00000083,-0.00000029,-0.00000005,0.0000020
 0,0.00000362,0.00000171,0.00000221,-0.00000130,-0.00000003,-0.00000060
 ,-0.00000035,-0.00000011,0.00000049,0.00000003,-0.00000898,-0.00000040
 ,-0.00000076,0.00000126,0.00000491,0.00000123,0.00000101,-0.00000177,0
 .00001250,0.00002378,0.00000670,-0.00000664,-0.00000813,0.00000130,0.0
 0000026,0.00000011,-0.00000073,-0.00000559,-0.00000864,0.00001119,-0.0
 0000598,-0.00001035,-0.00001824,-0.00001324,0.00001790,0.00000846,-0.0
 0000619,-0.00004729,0.00000136,-0.00000203,0.00000313,-0.00008760,0.00
 002544,-0.00016405,0.00001014,-0.00000052,0.00000648,-0.00000460,-0.00
 001688,0.00001730,0.00002956,-0.00006033,0.00007673,-0.00000545,0.0000
 0465,0.00000177,0.00000087,0.00000427,-0.00000319,-0.00070266,-0.00029
 185,0.00009586,0.00001620,-0.00027129,-0.00023255,0.00003072,0.0000142
 5,0.00001556,-0.00091363,0.00289326,-0.00522113,-0.01382810,-0.0082815
 3,-0.00203404,0.00079990,-0.00023539,0.00012609,-0.13969758,-0.1738892
 0,-0.04425346,0.00197623,-0.00140450,0.00181252,-0.00228616,0.00438334
 ,-0.00156252,0.00030227,-0.00061234,0.00041709,-0.00105119,0.00139363,
 -0.00169691,0.15396802,0.17791537,-0.00000299,-0.00000067,-0.00000047,
 0.00000095,0.00000057,0.00000022,0.00000070,-0.00000028,-0.00000014,0.
 00000157,0.00000309,0.00000118,0.00000158,-0.00000108,0.00000008,-0.00
 000045,-0.00000011,-0.00000008,0.00000031,0.00000002,-0.00000636,-0.00
 000011,-0.00000059,0.00000054,0.00000433,0.00000123,0.00000098,-0.0000
 0010,0.00001143,0.00002324,0.00000532,-0.00000543,-0.00000773,0.000001
 05,0.00000007,0.00000022,-0.00000226,-0.00000514,-0.00000938,0.0000111
 1,-0.00000573,-0.00001098,-0.00001710,-0.00001048,0.00001627,0.0000106
 1,-0.00000912,-0.00003901,0.00000130,-0.00000109,0.00000296,-0.0000705
 8,0.00007096,-0.00012626,0.00002936,-0.00000132,0.00002361,-0.00000279
 ,-0.00000394,0.00000686,0.00005342,-0.00004791,0.00002592,0.00000414,0
 .00000351,0.00000925,0.00000216,0.00000161,-0.00000565,-0.00101732,-0.
 00050072,0.00028551,-0.00004919,-0.00021229,-0.00027290,0.00004290,0.0
 0006310,-0.00001514,0.00293296,-0.00513234,-0.00185306,-0.01971264,-0.
 01791221,-0.00092986,0.00034910,0.00013411,-0.00111871,-0.03247817,-0.
 04418142,-0.06446179,-0.00107898,0.00225864,-0.00018956,0.00484262,-0.
 00204269,-0.00017339,-0.00039848,0.00042289,-0.00020383,0.01462461,0.0
 1414260,0.00789826,0.03301208,0.05087460,0.06119630,0.00000197,0.00000
 004,0.00000061,-0.00000049,-0.00000028,-0.00000041,-0.00000058,0.00000
 037,0.00000020,-0.00000108,-0.00000258,-0.00000079,-0.00000125,0.00000
 068,0.,0.00000035,0.00000067,-0.00000002,-0.00000051,-0.00000068,0.000
 00582,0.00000009,-0.00000002,-0.00000024,-0.00000270,-0.00000055,-0.00
 000128,0.00000022,-0.00000885,-0.00001683,-0.00000375,0.00000479,0.000
 00535,-0.00000087,-0.00000050,0.00000006,0.00000166,0.00000451,0.00000
 655,-0.00000782,0.00000424,0.00000630,0.00001353,0.00000889,-0.0000111
 6,-0.00000330,0.00000416,0.00003175,-0.00000132,0.00000172,-0.00000242
 ,0.00002333,-0.00002057,0.00012229,-0.00001464,0.00000026,-0.00000681,
 0.00000541,-0.00000513,0.00000113,-0.00004309,0.00001789,-0.00004762,0
 .00000334,-0.00000016,-0.00000010,-0.00000069,-0.00000341,0.00000599,-
 0.00005550,-0.00011025,-0.00005543,-0.00000770,0.00002187,0.00000256,-
 0.00004405,0.00009422,0.00007549,0.00348069,-0.00200215,0.00132558,-0.
 00000090,0.00009534,-0.00079605,0.00176358,-0.00131329,-0.00009064,0.0
 0003139,-0.00555662,-0.00037515,-0.00035143,0.00044273,-0.00018363,-0.
 22230585,-0.03089389,0.13761383,-0.00043877,0.00196181,-0.00104725,-0.
 01320893,-0.00069603,0.01517331,-0.00073031,-0.00008577,0.00079696,0.2
 3206092,-0.00000112,-0.00000003,-0.00000046,0.00000027,0.00000010,0.00
 000022,0.00000029,-0.00000011,-0.00000005,0.00000068,0.00000140,0.0000
 0053,0.00000069,-0.00000042,-0.00000004,-0.00000020,-0.00000033,0.,0.0
 0000023,0.00000053,-0.00000350,0.00000003,-0.00000012,0.00000041,0.000
 00166,0.00000034,0.00000063,0.00000010,0.00000462,0.00000898,0.0000019
 4,-0.00000250,-0.00000275,0.00000051,0.00000025,-0.00000006,-0.0000009
 3,-0.00000242,-0.00000332,0.00000453,-0.00000252,-0.00000413,-0.000007
 95,-0.00000540,0.00000736,0.00000122,-0.00000714,-0.00001724,0.0000015
 7,-0.00000242,0.00000158,-0.00002267,0.00003071,-0.00007727,0.00001344
 ,-0.00000325,0.00000595,0.00000560,-0.00001475,0.00000731,0.00003383,-
 0.00001917,0.00003314,-0.00000129,0.00000273,0.00000199,-0.00000278,0.
 00000646,0.00000272,0.00057115,0.00028241,-0.00046090,-0.00001394,0.00
 001038,0.00005499,0.00008208,-0.00018731,-0.00021899,-0.00246566,0.001
 72445,-0.00521512,0.00005682,-0.00101295,-0.00019411,0.01501733,0.0057
 3880,-0.01147811,-0.00502349,0.00075056,-0.00377743,0.00045558,-0.0004
 5599,0.00048795,-0.03084955,-0.05218484,0.01010486,0.00150347,-0.00142
 632,0.00225128,-0.01700215,0.00179256,0.01420210,-0.00089018,-0.000004
 10,0.00062247,0.03629115,0.04627813,-0.00000345,-0.00000033,-0.0000006
 5,0.00000098,0.00000062,0.00000052,0.00000098,-0.00000061,-0.00000034,
 0.00000190,0.00000436,0.00000142,0.00000209,-0.00000129,0.00000005,-0.
 00000058,-0.00000073,0.,0.00000096,0.00000060,-0.00000926,-0.00000024,
 -0.00000028,0.00000025,0.00000506,0.00000129,0.00000188,0.00000075,0.0
 0001585,0.00003157,0.00000644,-0.00000797,-0.00001015,0.00000151,0.000
 00057,0.00000008,-0.00000381,-0.00000801,-0.00001311,0.00001466,-0.000
 00726,-0.00001258,-0.00002169,-0.00001359,0.00002021,-0.00000010,-0.00
 001375,-0.00005225,0.00000286,-0.00000269,0.00000493,-0.00009131,0.000
 06658,-0.00018254,0.00001098,0.00000294,0.00000585,-0.00000658,-0.0000
 1593,0.00003406,0.00003515,-0.00008262,0.00005561,-0.00000639,-0.00000
 186,-0.00000234,-0.00000060,0.00000201,0.00000543,0.00100023,0.0006079
 5,-0.00017214,-0.00007672,-0.00001157,0.00000735,0.00008697,-0.0001596
 0,-0.00032298,0.00100790,-0.00595675,-0.00109273,-0.00084695,-0.000280
 00,-0.00049803,0.02142520,0.00417180,-0.01167086,0.00029396,-0.0032477
 5,0.00268565,-0.00019779,0.00048754,-0.00031944,0.13750790,0.01010991,
 -0.15709957,-0.00163805,0.00184815,-0.00019895,-0.00630740,-0.00144775
 ,0.00765724,-0.00030323,-0.00017725,0.00025157,-0.15102612,-0.00794806
 ,0.16143357,0.00000057,0.00000003,0.00000034,-0.00000011,-0.00000005,-
 0.00000011,-0.00000013,0.00000005,0.00000002,-0.00000014,-0.00000052,-
 0.00000023,-0.00000036,0.00000015,0.00000002,0.00000008,0.00000019,0.0
 0000002,-0.00000028,-0.00000070,0.00000189,0.00000007,0.00000002,-0.00
 000018,-0.00000066,-0.00000020,-0.00000031,0.00000041,-0.00000137,-0.0
 0000377,-0.00000108,0.00000109,0.00000110,-0.00000023,-0.00000017,0.00
 000006,0.00000008,0.00000085,0.00000105,-0.00000199,0.00000087,0.00000
 125,0.00000163,0.00000222,-0.00000271,-0.00000064,0.00000297,0.0000116
 7,0.00000029,0.00000007,-0.00000030,0.00000768,0.00003281,0.00004480,0
 .00000848,-0.00001228,0.00000262,-0.00000733,0.00002039,-0.00000147,-0
 .00000751,0.00002682,-0.00001608,0.00000048,0.00000100,0.00000055,-0.0
 0000084,-0.00000393,-0.00000145,-0.00011083,0.00047830,-0.00021124,-0.
 00002447,0.00000095,0.00005358,0.00009066,-0.00000634,-0.00010123,-0.0
 0118706,-0.00021415,-0.00008938,-0.00166249,-0.00334153,0.00429615,-0.
 00110475,-0.00515311,0.00131408,0.00242481,0.01529693,0.02070683,0.000
 00866,0.00062483,0.00107939,0.00541754,-0.01308520,-0.01976636,0.00013
 380,-0.00075044,-0.00090668,-0.05483926,0.00258621,0.02164600,-0.00012
 362,0.00151387,-0.00189798,-0.00016092,0.00223775,-0.00087548,0.051139
 47,-0.00000183,-0.00000011,-0.00000068,0.00000046,0.00000025,0.0000003
 1,0.00000047,-0.00000026,-0.00000010,0.00000085,0.00000198,0.00000072,
 0.00000108,-0.00000055,0.,-0.00000032,-0.00000045,-0.00000002,0.000000
 53,0.00000100,-0.00000512,-0.00000013,-0.00000015,0.00000039,0.0000024
 6,0.00000061,0.00000089,-0.00000088,0.00000619,0.00001359,0.00000352,-
 0.00000380,-0.00000433,0.00000071,0.00000042,-0.00000005,-0.00000074,-
 0.00000325,-0.00000479,0.00000651,-0.00000327,-0.00000530,-0.00000887,
 -0.00000660,0.00000885,0.00000104,-0.00000616,-0.00002808,0.00000007,-
 0.00000035,0.00000165,-0.00000614,-0.00002223,-0.00009659,0.00001100,-
 0.00000964,-0.00000035,-0.00000567,0.00000471,-0.00000135,0.00003434,-
 0.00003981,0.00003082,-0.00000413,0.00000111,0.00000217,0.00000171,0.0
 0000124,-0.00000244,0.00042926,-0.00050117,0.00023626,0.00007039,0.000
 07069,0.00002560,-0.00005324,-0.00002703,-0.00000201,-0.00017501,-0.00
 048295,0.00083676,-0.00283201,0.00407259,-0.00149258,-0.00569452,0.001
 49171,-0.00218366,-0.00105297,0.00521036,0.00409532,-0.00018514,0.0002
 1673,0.00014782,0.00331734,-0.00815681,-0.01785254,0.00007299,-0.00039
 960,-0.00094604,0.00258087,-0.13756932,-0.13700305,0.00199900,-0.00154
 158,0.00146365,0.00174541,-0.00129234,0.00206548,-0.00025840,0.1389878
 3,-0.00000159,-0.00000017,-0.00000025,0.00000044,0.00000037,0.00000022
 ,0.00000047,-0.00000037,-0.00000020,0.00000072,0.00000188,0.00000055,0
 .00000099,-0.00000053,0.00000005,-0.00000023,-0.00000035,0.00000001,0.
 00000022,-0.00000069,-0.00000311,-0.00000017,0.00000006,-0.00000011,0.
 00000168,0.00000047,0.00000082,-0.00000058,0.00000815,0.00001295,0.000
 00321,-0.00000368,-0.00000441,0.00000057,0.00000021,0.00000013,-0.0000
 0116,-0.00000361,-0.00000551,0.00000555,-0.00000338,-0.00000535,-0.000
 01019,-0.00000442,0.00000781,0.00000159,0.00000094,-0.00001344,0.00000
 134,-0.00000092,0.00000183,-0.00003366,0.00004947,-0.00000804,-0.00000
 569,0.00001506,0.00000024,-0.00000472,0.00000050,0.00000427,-0.0000010
 0,-0.00000012,0.00001155,-0.00000029,-0.00000332,-0.00000335,0.0000006
 0,-0.00000063,-0.00000326,-0.00029478,0.00040407,-0.00011013,-0.000084
 83,-0.00009844,-0.00002337,0.00009505,0.00001364,-0.00004347,-0.000031
 03,0.00071462,-0.00002120,0.00500189,-0.00091895,0.00119262,0.00055610
 ,-0.00266601,0.00322934,-0.00072159,-0.01181319,-0.01200514,0.00001040
 ,-0.00067253,-0.00067637,0.00177570,-0.00214585,-0.00163509,0.00018823
 ,-0.00017918,-0.00018220,0.02161422,-0.13693560,-0.23859423,-0.0012691
 9,0.00193665,-0.00031867,-0.00151183,0.00160708,-0.00053934,-0.0252864
 6,0.15069881,0.24973385\\-0.00000218,0.00000247,0.00000002,-0.00000028
 ,0.00000271,-0.00000051,0.00000319,-0.00000091,0.00000354,-0.00000228,
 -0.00000002,-0.00000582,0.00000212,-0.00000145,-0.00000130,0.,0.000000
 67,0.00000133,0.00000237,-0.00000177,0.00000117,0.00000080,-0.00000031
 ,0.00000057,0.00000036,0.00000060,-0.00000036,-0.00000942,-0.00000494,
 -0.00000550,-0.00000575,-0.00000734,0.00000440,0.00000085,0.00000318,-
 0.00000242,0.00000902,0.00000150,0.00000420,-0.00000044,0.00001872,-0.
 00000054,-0.00000024,-0.00002296,0.00000335,0.00000152,0.00000823,-0.0
 0000597,0.00000138,-0.00000020,0.00000057,-0.00000068,-0.00000026,-0.0
 0000468,0.00000045,-0.00000001,0.00000097,-0.00000014,-0.00000018,0.00
 000162,0.00000256,0.00000168,0.00000616,-0.00000299,-0.00000025,-0.000
 00088,-0.00000037,-0.00000057,-0.00000122,0.00000104,0.00000056,0.0000
 0231,-0.00000037,-0.00000058,0.00000038,-0.00000026,0.00000047,-0.0000
 0089,-0.00000668,-0.00000322,0.00000115,0.00000238,0.00000296,0.000002
 00,0.00000272,0.00000001,-0.00000328,0.00000234,-0.00000078,-0.0000037
 5,-0.00000037,0.00000001,-0.00000010,0.00000180,0.00000320,0.00000267,
 0.00000037,0.00000011,0.00000057,-0.00000346,-0.00000167,0.00000117,-0
 .00000028,0.00000013,-0.00000039,0.00000054,-0.00000003,-0.00000004,0.
 00000039,0.00000023,-0.00000051\\\@


 IF OTHER PEOPLE ARE GOING TO TALK, CONVERSATION IS SIMPLY IMPOSSIBLE.

                                               -- WHISTLER'S PRINCIPLE
 Job cpu time:       2 days  3 hours 30 minutes 51.0 seconds.
 Elapsed time:       0 days  4 hours 18 minutes 20.8 seconds.
 File lengths (MBytes):  RWF=   1866 Int=      0 D2E=      0 Chk=     65 Scr=      1
 Normal termination of Gaussian 16 at Wed Jul 10 23:46:55 2024.
