 Entering Gaussian System, Link 0=g16
 Initial command:
 /mnt/data/applications/G16/g16/l1.exe "/scratch/Gau-30995.inp" -scrdir="/scratch/"
 Entering Link 1 = /mnt/data/applications/G16/g16/l1.exe PID=     30996.
  
 Copyright (c) 1988,1990,1992,1993,1995,1998,2003,2009,2016,
            Gaussian, Inc.  All Rights Reserved.
  
 This is part of the Gaussian(R) 16 program.  It is based on
 the Gaussian(R) 09 system (copyright 2009, Gaussian, Inc.),
 the Gaussian(R) 03 system (copyright 2003, Gaussian, Inc.),
 the Gaussian(R) 98 system (copyright 1998, Gaussian, Inc.),
 the Gaussian(R) 94 system (copyright 1995, Gaussian, Inc.),
 the Gaussian 92(TM) system (copyright 1992, Gaussian, Inc.),
 the Gaussian 90(TM) system (copyright 1990, Gaussian, Inc.),
 the Gaussian 88(TM) system (copyright 1988, Gaussian, Inc.),
 the Gaussian 86(TM) system (copyright 1986, Carnegie Mellon
 University), and the Gaussian 82(TM) system (copyright 1983,
 Carnegie Mellon University). Gaussian is a federally registered
 trademark of Gaussian, Inc.
  
 This software contains proprietary and confidential information,
 including trade secrets, belonging to Gaussian, Inc.
  
 This software is provided under written license and may be
 used, copied, transmitted, or stored only in accord with that
 written license.
  
 The following legend is applicable only to US Government
 contracts under FAR:
  
                    RESTRICTED RIGHTS LEGEND
  
 Use, reproduction and disclosure by the US Government is
 subject to restrictions as set forth in subparagraphs (a)
 and (c) of the Commercial Computer Software - Restricted
 Rights clause in FAR 52.227-19.
  
 Gaussian, Inc.
 340 Quinnipiac St., Bldg. 40, Wallingford CT 06492
  
  
 ---------------------------------------------------------------
 Warning -- This program may not be used in any manner that
 competes with the business of Gaussian, Inc. or will provide
 assistance to any competitor of Gaussian, Inc.  The licensee
 of this program is prohibited from giving any competitor of
 Gaussian, Inc. access to this program.  By using this program,
 the user acknowledges that Gaussian, Inc. is engaged in the
 business of creating and licensing software in the field of
 computational chemistry and represents and warrants to the
 licensee that it is not a competitor of Gaussian, Inc. and that
 it will not use this program in any manner prohibited above.
 ---------------------------------------------------------------
  

 Cite this work as:
 Gaussian 16, Revision A.03,
 M. J. Frisch, G. W. Trucks, H. B. Schlegel, G. E. Scuseria, 
 M. A. Robb, J. R. Cheeseman, G. Scalmani, V. Barone, 
 G. A. Petersson, H. Nakatsuji, X. Li, M. Caricato, A. V. Marenich, 
 J. Bloino, B. G. Janesko, R. Gomperts, B. Mennucci, H. P. Hratchian, 
 J. V. Ortiz, A. F. Izmaylov, J. L. Sonnenberg, D. Williams-Young, 
 F. Ding, F. Lipparini, F. Egidi, J. Goings, B. Peng, A. Petrone, 
 T. Henderson, D. Ranasinghe, V. G. Zakrzewski, J. Gao, N. Rega, 
 G. Zheng, W. Liang, M. Hada, M. Ehara, K. Toyota, R. Fukuda, 
 J. Hasegawa, M. Ishida, T. Nakajima, Y. Honda, O. Kitao, H. Nakai, 
 T. Vreven, K. Throssell, J. A. Montgomery, Jr., J. E. Peralta, 
 F. Ogliaro, M. J. Bearpark, J. J. Heyd, E. N. Brothers, K. N. Kudin, 
 V. N. Staroverov, T. A. Keith, R. Kobayashi, J. Normand, 
 K. Raghavachari, A. P. Rendell, J. C. Burant, S. S. Iyengar, 
 J. Tomasi, M. Cossi, J. M. Millam, M. Klene, C. Adamo, R. Cammi, 
 J. W. Ochterski, R. L. Martin, K. Morokuma, O. Farkas, 
 J. B. Foresman, and D. J. Fox, Gaussian, Inc., Wallingford CT, 2016.
 
 ******************************************
 Gaussian 16:  AM64L-G16RevA.03 25-Dec-2016
                10-Jul-2024 
 ******************************************
 %nproc=12
 Will use up to   12 processors via shared memory.
 %mem=20GB
 %chk=TX-d.chk
 ----------------------------------------------------------------------
 #p opt freq b3lyp/gen pseudo=read EmpiricalDispersion=GD3BJ pop=(orbit
 als=20) optcyc=300 nosymm scrf=(pcm,solvent=acetonitrile)
 ----------------------------------------------------------------------
 1/6=300,18=20,19=15,26=3,38=1/1,3;
 2/9=110,12=2,15=1,17=6,18=5,40=1/2;
 3/5=7,11=2,16=1,17=8,25=1,30=1,70=2201,71=1,72=2,74=-5,124=41/1,2,3;
 4//1;
 5/5=2,38=5,53=2/2;
 6/7=2,8=2,9=2,10=2,28=1,96=20/1;
 7/30=1/1,2,3,16;
 1/6=300,18=20,19=15,26=3/3(2);
 2/9=110,15=1/2;
 99//99;
 2/9=110,15=1/2;
 3/5=7,6=1,11=2,16=1,17=8,25=1,30=1,70=2205,71=1,72=2,74=-5,82=7,124=41/1,2,3;
 4/5=5,16=3,69=1/1;
 5/5=2,38=5,53=2/2;
 7/30=1/1,2,3,16;
 1/6=300,18=20,19=15,26=3/3(-5);
 2/9=110,15=1/2;
 6/7=2,8=2,9=2,10=2,19=2,28=1,96=20/1;
 99/9=1/99;
 Leave Link    1 at Wed Jul 10 10:43:44 2024, MaxMem=  2684354560 cpu:               1.1 elap:               0.1
 (Enter /mnt/data/applications/G16/g16/l101.exe)
 -------------------
 Title Card Required
 -------------------
 Symbolic Z-matrix:
 Charge =  0 Multiplicity = 1
 C                    -1.33891   1.38751   0.41092 
 C                    -1.23858   2.65887  -0.02721 
 C                     0.0056    3.08882  -0.5276 
 C                     1.0869    2.17606  -0.54412 
 C                     0.92546   0.8693   -0.04625 
 C                    -0.2833    0.52877   0.44308 
 C                     2.51093   4.18322  -1.64693 
 C                     1.34133   4.94739  -1.54258 
 C                     1.36283   6.27618  -1.98671 
 H                     0.47995   6.87635  -1.91382 
 C                     2.49871   6.80545  -2.50943 
 C                     3.66572   6.03118  -2.61213 
 C                     3.6725    4.74379  -2.18844 
 H                    -2.08012   3.3192   -0.00074 
 H                     1.73644   0.17122  -0.05196 
 H                     2.50473   7.8211   -2.84604 
 H                     4.55407   6.45972  -3.02693 
 H                     4.56421   4.15766  -2.2679 
 C                     0.13748   4.42001  -1.00334 
 O                    -0.8683    5.17419  -0.94526 
 S                     2.49207   2.66438  -1.13687 
 O                    -0.6642   -0.71245   1.04876 
 C                    -3.08467  -1.70131   1.38723 
 C                    -2.38729  -2.75171   2.28705 
 C                    -4.34415  -1.15146   2.10309 
 H                    -1.50859  -3.11777   1.79846 
 H                    -4.81899  -0.41804   1.48539 
 C                    -2.00028  -2.1058    3.63507 
 C                    -3.90343  -0.51242   3.42755 
 C                    -3.24902  -1.56887   4.31155 
 H                    -3.94049  -2.36704   4.48358 
 H                    -2.97354  -1.1266    5.24613 
 H                    -3.0608   -3.56358   2.46618 
 H                    -5.03103  -1.94861   2.29688 
 C                    -3.49384  -2.35805   0.05608 
 H                    -3.97231  -1.63206  -0.56753 
 H                    -2.6227   -2.73433  -0.43841 
 H                    -4.1706   -3.16405   0.24912 
 C                    -1.34768  -3.16004   4.54855 
 H                    -1.08995  -2.7106    5.48473 
 H                    -2.03583  -3.96227   4.71552 
 H                    -0.46398  -3.53989   4.07993 
 C                    -5.11299   0.06297   4.18732 
 H                    -5.80605  -0.7234    4.40228 
 H                    -4.78125   0.50619   5.10293 
 H                    -5.59218   0.80585   3.5845 
 C                    -1.00917  -0.944     3.41818 
 O                     0.21411  -1.13581   3.64278 
 N                    -1.45033   0.38518   2.94186 
 H                    -0.9497    1.09436   3.43804 
 C                    -2.90309   0.60934   3.10202 
 H                    -2.89632   0.14352   2.13871 
 H                    -3.29904   1.52545   2.71652 
 N                    -2.51278   0.68769   0.89369 
 C                    -2.11198  -0.54031   1.10757 
 
 ITRead=  0  0  0  0  0  0  0  0  0  0  0  0  0  0  0  0  0  0  0  0
 ITRead=  0  0  0  0  0  0  0  0  0  0  0  0  0  0  0  0  0  0  0  0
 ITRead=  0  0  0  0  0  0  0  0  0  0  0  0  0  0  0
 MicOpt= -1 -1 -1 -1 -1 -1 -1 -1 -1 -1 -1 -1 -1 -1 -1 -1 -1 -1 -1 -1
 MicOpt= -1 -1 -1 -1 -1 -1 -1 -1 -1 -1 -1 -1 -1 -1 -1 -1 -1 -1 -1 -1
 MicOpt= -1 -1 -1 -1 -1 -1 -1 -1 -1 -1 -1 -1 -1 -1 -1
 NAtoms=     55 NQM=       55 NQMF=       0 NMMI=      0 NMMIF=      0
                NMic=       0 NMicF=      0.
                    Isotopes and Nuclear Properties:
 (Nuclear quadrupole moments (NQMom) in fm**2, nuclear magnetic moments (NMagM)
  in nuclear magnetons)

  Atom         1           2           3           4           5           6           7           8           9          10
 IAtWgt=          12          12          12          12          12          12          12          12          12           1
 AtmWgt=  12.0000000  12.0000000  12.0000000  12.0000000  12.0000000  12.0000000  12.0000000  12.0000000  12.0000000   1.0078250
 NucSpn=           0           0           0           0           0           0           0           0           0           1
 AtZEff=  -0.0000000  -0.0000000  -0.0000000  -0.0000000  -0.0000000  -0.0000000  -0.0000000  -0.0000000  -0.0000000  -0.0000000
 NQMom=    0.0000000   0.0000000   0.0000000   0.0000000   0.0000000   0.0000000   0.0000000   0.0000000   0.0000000   0.0000000
 NMagM=    0.0000000   0.0000000   0.0000000   0.0000000   0.0000000   0.0000000   0.0000000   0.0000000   0.0000000   2.7928460
 AtZNuc=   6.0000000   6.0000000   6.0000000   6.0000000   6.0000000   6.0000000   6.0000000   6.0000000   6.0000000   1.0000000

  Atom        11          12          13          14          15          16          17          18          19          20
 IAtWgt=          12          12          12           1           1           1           1           1          12          16
 AtmWgt=  12.0000000  12.0000000  12.0000000   1.0078250   1.0078250   1.0078250   1.0078250   1.0078250  12.0000000  15.9949146
 NucSpn=           0           0           0           1           1           1           1           1           0           0
 AtZEff=  -0.0000000  -0.0000000  -0.0000000  -0.0000000  -0.0000000  -0.0000000  -0.0000000  -0.0000000  -0.0000000  -0.0000000
 NQMom=    0.0000000   0.0000000   0.0000000   0.0000000   0.0000000   0.0000000   0.0000000   0.0000000   0.0000000   0.0000000
 NMagM=    0.0000000   0.0000000   0.0000000   2.7928460   2.7928460   2.7928460   2.7928460   2.7928460   0.0000000   0.0000000
 AtZNuc=   6.0000000   6.0000000   6.0000000   1.0000000   1.0000000   1.0000000   1.0000000   1.0000000   6.0000000   8.0000000

  Atom        21          22          23          24          25          26          27          28          29          30
 IAtWgt=          32          16          12          12          12           1           1          12          12          12
 AtmWgt=  31.9720718  15.9949146  12.0000000  12.0000000  12.0000000   1.0078250   1.0078250  12.0000000  12.0000000  12.0000000
 NucSpn=           0           0           0           0           0           1           1           0           0           0
 AtZEff=  -0.0000000  -0.0000000  -0.0000000  -0.0000000  -0.0000000  -0.0000000  -0.0000000  -0.0000000  -0.0000000  -0.0000000
 NQMom=    0.0000000   0.0000000   0.0000000   0.0000000   0.0000000   0.0000000   0.0000000   0.0000000   0.0000000   0.0000000
 NMagM=    0.0000000   0.0000000   0.0000000   0.0000000   0.0000000   2.7928460   2.7928460   0.0000000   0.0000000   0.0000000
 AtZNuc=  16.0000000   8.0000000   6.0000000   6.0000000   6.0000000   1.0000000   1.0000000   6.0000000   6.0000000   6.0000000

  Atom        31          32          33          34          35          36          37          38          39          40
 IAtWgt=           1           1           1           1          12           1           1           1          12           1
 AtmWgt=   1.0078250   1.0078250   1.0078250   1.0078250  12.0000000   1.0078250   1.0078250   1.0078250  12.0000000   1.0078250
 NucSpn=           1           1           1           1           0           1           1           1           0           1
 AtZEff=  -0.0000000  -0.0000000  -0.0000000  -0.0000000  -0.0000000  -0.0000000  -0.0000000  -0.0000000  -0.0000000  -0.0000000
 NQMom=    0.0000000   0.0000000   0.0000000   0.0000000   0.0000000   0.0000000   0.0000000   0.0000000   0.0000000   0.0000000
 NMagM=    2.7928460   2.7928460   2.7928460   2.7928460   0.0000000   2.7928460   2.7928460   2.7928460   0.0000000   2.7928460
 AtZNuc=   1.0000000   1.0000000   1.0000000   1.0000000   6.0000000   1.0000000   1.0000000   1.0000000   6.0000000   1.0000000

  Atom        41          42          43          44          45          46          47          48          49          50
 IAtWgt=           1           1          12           1           1           1          12          16          14           1
 AtmWgt=   1.0078250   1.0078250  12.0000000   1.0078250   1.0078250   1.0078250  12.0000000  15.9949146  14.0030740   1.0078250
 NucSpn=           1           1           0           1           1           1           0           0           2           1
 AtZEff=  -0.0000000  -0.0000000  -0.0000000  -0.0000000  -0.0000000  -0.0000000  -0.0000000  -0.0000000  -0.0000000  -0.0000000
 NQMom=    0.0000000   0.0000000   0.0000000   0.0000000   0.0000000   0.0000000   0.0000000   0.0000000   2.0440000   0.0000000
 NMagM=    2.7928460   2.7928460   0.0000000   2.7928460   2.7928460   2.7928460   0.0000000   0.0000000   0.4037610   2.7928460
 AtZNuc=   1.0000000   1.0000000   6.0000000   1.0000000   1.0000000   1.0000000   6.0000000   8.0000000   7.0000000   1.0000000

  Atom        51          52          53          54          55
 IAtWgt=          12           1           1          14          12
 AtmWgt=  12.0000000   1.0078250   1.0078250  14.0030740  12.0000000
 NucSpn=           0           1           1           2           0
 AtZEff=  -0.0000000  -0.0000000  -0.0000000  -0.0000000  -0.0000000
 NQMom=    0.0000000   0.0000000   0.0000000   2.0440000   0.0000000
 NMagM=    0.0000000   2.7928460   2.7928460   0.4037610   0.0000000
 AtZNuc=   6.0000000   1.0000000   1.0000000   7.0000000   6.0000000
 Leave Link  101 at Wed Jul 10 10:43:45 2024, MaxMem=  2684354560 cpu:               5.5 elap:               0.5
 (Enter /mnt/data/applications/G16/g16/l103.exe)

 GradGradGradGradGradGradGradGradGradGradGradGradGradGradGradGradGradGrad
 Berny optimization.
 Initialization pass.
                           ----------------------------
                           !    Initial Parameters    !
                           ! (Angstroms and Degrees)  !
 --------------------------                            --------------------------
 ! Name  Definition              Value          Derivative Info.                !
 --------------------------------------------------------------------------------
 ! R1    R(1,2)                  1.3485         estimate D2E/DX2                !
 ! R2    R(1,6)                  1.3612         estimate D2E/DX2                !
 ! R3    R(1,54)                 1.4494         estimate D2E/DX2                !
 ! R4    R(2,3)                  1.4083         estimate D2E/DX2                !
 ! R5    R(2,14)                 1.07           estimate D2E/DX2                !
 ! R6    R(3,4)                  1.4151         estimate D2E/DX2                !
 ! R7    R(3,19)                 1.4198         estimate D2E/DX2                !
 ! R8    R(4,5)                  1.4077         estimate D2E/DX2                !
 ! R9    R(4,21)                 1.6013         estimate D2E/DX2                !
 ! R10   R(5,6)                  1.3478         estimate D2E/DX2                !
 ! R11   R(5,15)                 1.0701         estimate D2E/DX2                !
 ! R12   R(6,22)                 1.4327         estimate D2E/DX2                !
 ! R13   R(7,8)                  1.401          estimate D2E/DX2                !
 ! R14   R(7,13)                 1.3988         estimate D2E/DX2                !
 ! R15   R(7,21)                 1.6023         estimate D2E/DX2                !
 ! R16   R(8,9)                  1.4012         estimate D2E/DX2                !
 ! R17   R(8,19)                 1.4206         estimate D2E/DX2                !
 ! R18   R(9,10)                 1.07           estimate D2E/DX2                !
 ! R19   R(9,11)                 1.3578         estimate D2E/DX2                !
 ! R20   R(11,12)                1.4043         estimate D2E/DX2                !
 ! R21   R(11,16)                1.07           estimate D2E/DX2                !
 ! R22   R(12,13)                1.3553         estimate D2E/DX2                !
 ! R23   R(12,17)                1.07           estimate D2E/DX2                !
 ! R24   R(13,18)                1.0701         estimate D2E/DX2                !
 ! R25   R(19,20)                1.2585         estimate D2E/DX2                !
 ! R26   R(22,55)                1.4592         estimate D2E/DX2                !
 ! R27   R(23,24)                1.549          estimate D2E/DX2                !
 ! R28   R(23,25)                1.5495         estimate D2E/DX2                !
 ! R29   R(23,35)                1.5397         estimate D2E/DX2                !
 ! R30   R(23,55)                1.5402         estimate D2E/DX2                !
 ! R31   R(24,26)                1.07           estimate D2E/DX2                !
 ! R32   R(24,28)                1.5441         estimate D2E/DX2                !
 ! R33   R(24,33)                1.07           estimate D2E/DX2                !
 ! R34   R(25,27)                1.07           estimate D2E/DX2                !
 ! R35   R(25,29)                1.5352         estimate D2E/DX2                !
 ! R36   R(25,34)                1.07           estimate D2E/DX2                !
 ! R37   R(28,30)                1.5183         estimate D2E/DX2                !
 ! R38   R(28,39)                1.5401         estimate D2E/DX2                !
 ! R39   R(28,47)                1.5424         estimate D2E/DX2                !
 ! R40   R(29,30)                1.525          estimate D2E/DX2                !
 ! R41   R(29,43)                1.5399         estimate D2E/DX2                !
 ! R42   R(29,51)                1.5379         estimate D2E/DX2                !
 ! R43   R(30,31)                1.07           estimate D2E/DX2                !
 ! R44   R(30,32)                1.07           estimate D2E/DX2                !
 ! R45   R(35,36)                1.07           estimate D2E/DX2                !
 ! R46   R(35,37)                1.07           estimate D2E/DX2                !
 ! R47   R(35,38)                1.07           estimate D2E/DX2                !
 ! R48   R(39,40)                1.07           estimate D2E/DX2                !
 ! R49   R(39,41)                1.0701         estimate D2E/DX2                !
 ! R50   R(39,42)                1.07           estimate D2E/DX2                !
 ! R51   R(43,44)                1.07           estimate D2E/DX2                !
 ! R52   R(43,45)                1.07           estimate D2E/DX2                !
 ! R53   R(43,46)                1.07           estimate D2E/DX2                !
 ! R54   R(47,48)                1.2584         estimate D2E/DX2                !
 ! R55   R(47,49)                1.4793         estimate D2E/DX2                !
 ! R56   R(49,50)                0.9999         estimate D2E/DX2                !
 ! R57   R(49,51)                1.4787         estimate D2E/DX2                !
 ! R58   R(51,52)                1.0701         estimate D2E/DX2                !
 ! R59   R(51,53)                1.0699         estimate D2E/DX2                !
 ! R60   R(54,55)                1.3093         estimate D2E/DX2                !
 ! A1    A(2,1,6)              123.01           estimate D2E/DX2                !
 ! A2    A(2,1,54)             128.5866         estimate D2E/DX2                !
 ! A3    A(6,1,54)             108.3975         estimate D2E/DX2                !
 ! A4    A(1,2,3)              117.9706         estimate D2E/DX2                !
 ! A5    A(1,2,14)             121.0162         estimate D2E/DX2                !
 ! A6    A(3,2,14)             121.0123         estimate D2E/DX2                !
 ! A7    A(2,3,4)              118.8355         estimate D2E/DX2                !
 ! A8    A(2,3,19)             119.1678         estimate D2E/DX2                !
 ! A9    A(4,3,19)             121.9964         estimate D2E/DX2                !
 ! A10   A(3,4,5)              120.464          estimate D2E/DX2                !
 ! A11   A(3,4,21)             118.563          estimate D2E/DX2                !
 ! A12   A(5,4,21)             120.9729         estimate D2E/DX2                !
 ! A13   A(4,5,6)              117.7627         estimate D2E/DX2                !
 ! A14   A(4,5,15)             121.1172         estimate D2E/DX2                !
 ! A15   A(6,5,15)             121.1195         estimate D2E/DX2                !
 ! A16   A(1,6,5)              121.8399         estimate D2E/DX2                !
 ! A17   A(1,6,22)             110.5107         estimate D2E/DX2                !
 ! A18   A(5,6,22)             127.6493         estimate D2E/DX2                !
 ! A19   A(8,7,13)             120.2302         estimate D2E/DX2                !
 ! A20   A(8,7,21)             118.9142         estimate D2E/DX2                !
 ! A21   A(13,7,21)            120.8555         estimate D2E/DX2                !
 ! A22   A(7,8,9)              118.7405         estimate D2E/DX2                !
 ! A23   A(7,8,19)             122.2235         estimate D2E/DX2                !
 ! A24   A(9,8,19)             119.036          estimate D2E/DX2                !
 ! A25   A(8,9,10)             119.8441         estimate D2E/DX2                !
 ! A26   A(8,9,11)             120.2987         estimate D2E/DX2                !
 ! A27   A(10,9,11)            119.8571         estimate D2E/DX2                !
 ! A28   A(9,11,12)            120.5617         estimate D2E/DX2                !
 ! A29   A(9,11,16)            119.7238         estimate D2E/DX2                !
 ! A30   A(12,11,16)           119.7145         estimate D2E/DX2                !
 ! A31   A(11,12,13)           120.3327         estimate D2E/DX2                !
 ! A32   A(11,12,17)           119.8348         estimate D2E/DX2                !
 ! A33   A(13,12,17)           119.8325         estimate D2E/DX2                !
 ! A34   A(7,13,12)            119.836          estimate D2E/DX2                !
 ! A35   A(7,13,18)            120.0812         estimate D2E/DX2                !
 ! A36   A(12,13,18)           120.0827         estimate D2E/DX2                !
 ! A37   A(3,19,8)             123.6397         estimate D2E/DX2                !
 ! A38   A(3,19,20)            118.1767         estimate D2E/DX2                !
 ! A39   A(8,19,20)            118.1836         estimate D2E/DX2                !
 ! A40   A(4,21,7)             114.659          estimate D2E/DX2                !
 ! A41   A(6,22,55)            100.2896         estimate D2E/DX2                !
 ! A42   A(24,23,25)           109.7675         estimate D2E/DX2                !
 ! A43   A(24,23,35)           109.4277         estimate D2E/DX2                !
 ! A44   A(24,23,55)           109.4095         estimate D2E/DX2                !
 ! A45   A(25,23,35)           109.5579         estimate D2E/DX2                !
 ! A46   A(25,23,55)           109.2515         estimate D2E/DX2                !
 ! A47   A(35,23,55)           109.4124         estimate D2E/DX2                !
 ! A48   A(23,24,26)           109.6619         estimate D2E/DX2                !
 ! A49   A(23,24,28)           109.6526         estimate D2E/DX2                !
 ! A50   A(23,24,33)           109.1717         estimate D2E/DX2                !
 ! A51   A(26,24,28)           109.6301         estimate D2E/DX2                !
 ! A52   A(26,24,33)           109.4998         estimate D2E/DX2                !
 ! A53   A(28,24,33)           109.2091         estimate D2E/DX2                !
 ! A54   A(23,25,27)           109.7085         estimate D2E/DX2                !
 ! A55   A(23,25,29)           108.2361         estimate D2E/DX2                !
 ! A56   A(23,25,34)           109.9439         estimate D2E/DX2                !
 ! A57   A(27,25,29)           109.8843         estimate D2E/DX2                !
 ! A58   A(27,25,34)           109.289          estimate D2E/DX2                !
 ! A59   A(29,25,34)           109.7651         estimate D2E/DX2                !
 ! A60   A(24,28,30)           109.3158         estimate D2E/DX2                !
 ! A61   A(24,28,39)           109.736          estimate D2E/DX2                !
 ! A62   A(24,28,47)           110.6941         estimate D2E/DX2                !
 ! A63   A(30,28,39)           109.0459         estimate D2E/DX2                !
 ! A64   A(30,28,47)           108.9509         estimate D2E/DX2                !
 ! A65   A(39,28,47)           109.0706         estimate D2E/DX2                !
 ! A66   A(25,29,30)           109.5677         estimate D2E/DX2                !
 ! A67   A(25,29,43)           110.8364         estimate D2E/DX2                !
 ! A68   A(25,29,51)           107.9237         estimate D2E/DX2                !
 ! A69   A(30,29,43)           108.053          estimate D2E/DX2                !
 ! A70   A(30,29,51)           110.4186         estimate D2E/DX2                !
 ! A71   A(43,29,51)           110.0483         estimate D2E/DX2                !
 ! A72   A(28,30,29)           109.8544         estimate D2E/DX2                !
 ! A73   A(28,30,31)           109.8371         estimate D2E/DX2                !
 ! A74   A(28,30,32)           108.8795         estimate D2E/DX2                !
 ! A75   A(29,30,31)           109.4299         estimate D2E/DX2                !
 ! A76   A(29,30,32)           109.2952         estimate D2E/DX2                !
 ! A77   A(31,30,32)           109.5288         estimate D2E/DX2                !
 ! A78   A(23,35,36)           109.469          estimate D2E/DX2                !
 ! A79   A(23,35,37)           109.4611         estimate D2E/DX2                !
 ! A80   A(23,35,38)           109.4753         estimate D2E/DX2                !
 ! A81   A(36,35,37)           109.4703         estimate D2E/DX2                !
 ! A82   A(36,35,38)           109.4757         estimate D2E/DX2                !
 ! A83   A(37,35,38)           109.476          estimate D2E/DX2                !
 ! A84   A(28,39,40)           109.482          estimate D2E/DX2                !
 ! A85   A(28,39,41)           109.4662         estimate D2E/DX2                !
 ! A86   A(28,39,42)           109.4645         estimate D2E/DX2                !
 ! A87   A(40,39,41)           109.4687         estimate D2E/DX2                !
 ! A88   A(40,39,42)           109.4748         estimate D2E/DX2                !
 ! A89   A(41,39,42)           109.4711         estimate D2E/DX2                !
 ! A90   A(29,43,44)           109.4679         estimate D2E/DX2                !
 ! A91   A(29,43,45)           109.478          estimate D2E/DX2                !
 ! A92   A(29,43,46)           109.4645         estimate D2E/DX2                !
 ! A93   A(44,43,45)           109.4718         estimate D2E/DX2                !
 ! A94   A(44,43,46)           109.4721         estimate D2E/DX2                !
 ! A95   A(45,43,46)           109.4732         estimate D2E/DX2                !
 ! A96   A(28,47,48)           118.9935         estimate D2E/DX2                !
 ! A97   A(28,47,49)           122.036          estimate D2E/DX2                !
 ! A98   A(48,47,49)           118.9679         estimate D2E/DX2                !
 ! A99   A(47,49,50)           109.1595         estimate D2E/DX2                !
 ! A100  A(47,49,51)           113.2252         estimate D2E/DX2                !
 ! A101  A(50,49,51)           109.3076         estimate D2E/DX2                !
 ! A102  A(29,51,49)           123.465          estimate D2E/DX2                !
 ! A103  A(29,51,52)            82.9425         estimate D2E/DX2                !
 ! A104  A(29,51,53)           117.3955         estimate D2E/DX2                !
 ! A105  A(49,51,52)            80.228          estimate D2E/DX2                !
 ! A106  A(49,51,53)           117.026          estimate D2E/DX2                !
 ! A107  A(52,51,53)            92.9072         estimate D2E/DX2                !
 ! A108  A(1,54,55)            105.0303         estimate D2E/DX2                !
 ! A109  A(22,55,23)           123.0244         estimate D2E/DX2                !
 ! A110  A(22,55,54)           114.0651         estimate D2E/DX2                !
 ! A111  A(23,55,54)           122.9093         estimate D2E/DX2                !
 ! D1    D(6,1,2,3)              2.9094         estimate D2E/DX2                !
 ! D2    D(6,1,2,14)          -177.4371         estimate D2E/DX2                !
 ! D3    D(54,1,2,3)          -176.102          estimate D2E/DX2                !
 ! D4    D(54,1,2,14)            3.5515         estimate D2E/DX2                !
 ! D5    D(2,1,6,5)             -4.39           estimate D2E/DX2                !
 ! D6    D(2,1,6,22)           175.5778         estimate D2E/DX2                !
 ! D7    D(54,1,6,5)           174.7957         estimate D2E/DX2                !
 ! D8    D(54,1,6,22)           -5.2366         estimate D2E/DX2                !
 ! D9    D(2,1,54,55)          175.7013         estimate D2E/DX2                !
 ! D10   D(6,1,54,55)           -3.425          estimate D2E/DX2                !
 ! D11   D(1,2,3,4)             -0.1941         estimate D2E/DX2                !
 ! D12   D(1,2,3,19)           179.6107         estimate D2E/DX2                !
 ! D13   D(14,2,3,4)          -179.8476         estimate D2E/DX2                !
 ! D14   D(14,2,3,19)           -0.0428         estimate D2E/DX2                !
 ! D15   D(2,3,4,5)             -1.1305         estimate D2E/DX2                !
 ! D16   D(2,3,4,21)           179.0017         estimate D2E/DX2                !
 ! D17   D(19,3,4,5)           179.0705         estimate D2E/DX2                !
 ! D18   D(19,3,4,21)           -0.7973         estimate D2E/DX2                !
 ! D19   D(2,3,19,8)          -179.1806         estimate D2E/DX2                !
 ! D20   D(2,3,19,20)            0.7484         estimate D2E/DX2                !
 ! D21   D(4,3,19,8)             0.6177         estimate D2E/DX2                !
 ! D22   D(4,3,19,20)         -179.4532         estimate D2E/DX2                !
 ! D23   D(3,4,5,6)             -0.1599         estimate D2E/DX2                !
 ! D24   D(3,4,5,15)          -179.8838         estimate D2E/DX2                !
 ! D25   D(21,4,5,6)           179.7047         estimate D2E/DX2                !
 ! D26   D(21,4,5,15)           -0.0192         estimate D2E/DX2                !
 ! D27   D(3,4,21,7)             0.4955         estimate D2E/DX2                !
 ! D28   D(5,4,21,7)          -179.3716         estimate D2E/DX2                !
 ! D29   D(4,5,6,1)              2.8372         estimate D2E/DX2                !
 ! D30   D(4,5,6,22)          -177.1247         estimate D2E/DX2                !
 ! D31   D(15,5,6,1)          -177.4389         estimate D2E/DX2                !
 ! D32   D(15,5,6,22)            2.5992         estimate D2E/DX2                !
 ! D33   D(1,6,22,55)           10.6984         estimate D2E/DX2                !
 ! D34   D(5,6,22,55)         -169.3361         estimate D2E/DX2                !
 ! D35   D(13,7,8,9)            -0.1448         estimate D2E/DX2                !
 ! D36   D(13,7,8,19)          179.8179         estimate D2E/DX2                !
 ! D37   D(21,7,8,9)           179.8455         estimate D2E/DX2                !
 ! D38   D(21,7,8,19)           -0.1918         estimate D2E/DX2                !
 ! D39   D(8,7,13,12)            0.0645         estimate D2E/DX2                !
 ! D40   D(8,7,13,18)         -179.9398         estimate D2E/DX2                !
 ! D41   D(21,7,13,12)        -179.9257         estimate D2E/DX2                !
 ! D42   D(21,7,13,18)           0.07           estimate D2E/DX2                !
 ! D43   D(8,7,21,4)            -0.0154         estimate D2E/DX2                !
 ! D44   D(13,7,21,4)          179.9749         estimate D2E/DX2                !
 ! D45   D(7,8,9,10)          -179.8983         estimate D2E/DX2                !
 ! D46   D(7,8,9,11)             0.1198         estimate D2E/DX2                !
 ! D47   D(19,8,9,10)            0.1378         estimate D2E/DX2                !
 ! D48   D(19,8,9,11)         -179.8441         estimate D2E/DX2                !
 ! D49   D(7,8,19,3)            -0.0821         estimate D2E/DX2                !
 ! D50   D(7,8,19,20)          179.9889         estimate D2E/DX2                !
 ! D51   D(9,8,19,3)           179.8805         estimate D2E/DX2                !
 ! D52   D(9,8,19,20)           -0.0486         estimate D2E/DX2                !
 ! D53   D(8,9,11,12)           -0.0149         estimate D2E/DX2                !
 ! D54   D(8,9,11,16)          179.9816         estimate D2E/DX2                !
 ! D55   D(10,9,11,12)        -179.9968         estimate D2E/DX2                !
 ! D56   D(10,9,11,16)          -0.0004         estimate D2E/DX2                !
 ! D57   D(9,11,12,13)          -0.0684         estimate D2E/DX2                !
 ! D58   D(9,11,12,17)         179.9341         estimate D2E/DX2                !
 ! D59   D(16,11,12,13)        179.9351         estimate D2E/DX2                !
 ! D60   D(16,11,12,17)         -0.0624         estimate D2E/DX2                !
 ! D61   D(11,12,13,7)           0.0427         estimate D2E/DX2                !
 ! D62   D(11,12,13,18)       -179.953          estimate D2E/DX2                !
 ! D63   D(17,12,13,7)        -179.9598         estimate D2E/DX2                !
 ! D64   D(17,12,13,18)          0.0445         estimate D2E/DX2                !
 ! D65   D(6,22,55,23)         165.9778         estimate D2E/DX2                !
 ! D66   D(6,22,55,54)         -13.6407         estimate D2E/DX2                !
 ! D67   D(25,23,24,26)       -179.0221         estimate D2E/DX2                !
 ! D68   D(25,23,24,28)        -58.5969         estimate D2E/DX2                !
 ! D69   D(25,23,24,33)         61.01           estimate D2E/DX2                !
 ! D70   D(35,23,24,26)         60.716          estimate D2E/DX2                !
 ! D71   D(35,23,24,28)       -178.8588         estimate D2E/DX2                !
 ! D72   D(35,23,24,33)        -59.2519         estimate D2E/DX2                !
 ! D73   D(55,23,24,26)        -59.1478         estimate D2E/DX2                !
 ! D74   D(55,23,24,28)         61.2774         estimate D2E/DX2                !
 ! D75   D(55,23,24,33)       -179.1157         estimate D2E/DX2                !
 ! D76   D(24,23,25,27)        179.3705         estimate D2E/DX2                !
 ! D77   D(24,23,25,29)         59.4751         estimate D2E/DX2                !
 ! D78   D(24,23,25,34)        -60.4138         estimate D2E/DX2                !
 ! D79   D(35,23,25,27)        -60.4468         estimate D2E/DX2                !
 ! D80   D(35,23,25,29)        179.6578         estimate D2E/DX2                !
 ! D81   D(35,23,25,34)         59.769          estimate D2E/DX2                !
 ! D82   D(55,23,25,27)         59.3999         estimate D2E/DX2                !
 ! D83   D(55,23,25,29)        -60.4955         estimate D2E/DX2                !
 ! D84   D(55,23,25,34)        179.6156         estimate D2E/DX2                !
 ! D85   D(24,23,35,36)       -179.785          estimate D2E/DX2                !
 ! D86   D(24,23,35,37)        -59.7937         estimate D2E/DX2                !
 ! D87   D(24,23,35,38)         60.2084         estimate D2E/DX2                !
 ! D88   D(25,23,35,36)         59.8251         estimate D2E/DX2                !
 ! D89   D(25,23,35,37)        179.8164         estimate D2E/DX2                !
 ! D90   D(25,23,35,38)        -60.1815         estimate D2E/DX2                !
 ! D91   D(55,23,35,36)        -59.923          estimate D2E/DX2                !
 ! D92   D(55,23,35,37)         60.0683         estimate D2E/DX2                !
 ! D93   D(55,23,35,38)       -179.9296         estimate D2E/DX2                !
 ! D94   D(24,23,55,22)         30.0636         estimate D2E/DX2                !
 ! D95   D(24,23,55,54)       -150.3513         estimate D2E/DX2                !
 ! D96   D(25,23,55,22)        150.2541         estimate D2E/DX2                !
 ! D97   D(25,23,55,54)        -30.1608         estimate D2E/DX2                !
 ! D98   D(35,23,55,22)        -89.8096         estimate D2E/DX2                !
 ! D99   D(35,23,55,54)         89.7754         estimate D2E/DX2                !
 ! D100  D(23,24,28,30)         58.6395         estimate D2E/DX2                !
 ! D101  D(23,24,28,39)        178.1852         estimate D2E/DX2                !
 ! D102  D(23,24,28,47)        -61.3781         estimate D2E/DX2                !
 ! D103  D(26,24,28,30)        179.0841         estimate D2E/DX2                !
 ! D104  D(26,24,28,39)        -61.3703         estimate D2E/DX2                !
 ! D105  D(26,24,28,47)         59.0664         estimate D2E/DX2                !
 ! D106  D(33,24,28,30)        -60.9445         estimate D2E/DX2                !
 ! D107  D(33,24,28,39)         58.6011         estimate D2E/DX2                !
 ! D108  D(33,24,28,47)        179.0378         estimate D2E/DX2                !
 ! D109  D(23,25,29,30)        -61.1648         estimate D2E/DX2                !
 ! D110  D(23,25,29,43)        179.6793         estimate D2E/DX2                !
 ! D111  D(23,25,29,51)         59.1079         estimate D2E/DX2                !
 ! D112  D(27,25,29,30)        179.0501         estimate D2E/DX2                !
 ! D113  D(27,25,29,43)         59.8943         estimate D2E/DX2                !
 ! D114  D(27,25,29,51)        -60.6772         estimate D2E/DX2                !
 ! D115  D(34,25,29,30)         58.8361         estimate D2E/DX2                !
 ! D116  D(34,25,29,43)        -60.3197         estimate D2E/DX2                !
 ! D117  D(34,25,29,51)        179.1088         estimate D2E/DX2                !
 ! D118  D(24,28,30,29)        -60.5681         estimate D2E/DX2                !
 ! D119  D(24,28,30,31)         59.8465         estimate D2E/DX2                !
 ! D120  D(24,28,30,32)        179.7766         estimate D2E/DX2                !
 ! D121  D(39,28,30,29)        179.4615         estimate D2E/DX2                !
 ! D122  D(39,28,30,31)        -60.1239         estimate D2E/DX2                !
 ! D123  D(39,28,30,32)         59.8062         estimate D2E/DX2                !
 ! D124  D(47,28,30,29)         60.5143         estimate D2E/DX2                !
 ! D125  D(47,28,30,31)       -179.0711         estimate D2E/DX2                !
 ! D126  D(47,28,30,32)        -59.141          estimate D2E/DX2                !
 ! D127  D(24,28,39,40)       -179.4483         estimate D2E/DX2                !
 ! D128  D(24,28,39,41)        -59.4478         estimate D2E/DX2                !
 ! D129  D(24,28,39,42)         60.5449         estimate D2E/DX2                !
 ! D130  D(30,28,39,40)        -59.7375         estimate D2E/DX2                !
 ! D131  D(30,28,39,41)         60.263          estimate D2E/DX2                !
 ! D132  D(30,28,39,42)       -179.7444         estimate D2E/DX2                !
 ! D133  D(47,28,39,40)         59.135          estimate D2E/DX2                !
 ! D134  D(47,28,39,41)        179.1355         estimate D2E/DX2                !
 ! D135  D(47,28,39,42)        -60.8718         estimate D2E/DX2                !
 ! D136  D(24,28,47,48)       -101.5911         estimate D2E/DX2                !
 ! D137  D(24,28,47,49)         77.8111         estimate D2E/DX2                !
 ! D138  D(30,28,47,48)        138.1731         estimate D2E/DX2                !
 ! D139  D(30,28,47,49)        -42.4247         estimate D2E/DX2                !
 ! D140  D(39,28,47,48)         19.2413         estimate D2E/DX2                !
 ! D141  D(39,28,47,49)       -161.3565         estimate D2E/DX2                !
 ! D142  D(25,29,30,28)         62.4988         estimate D2E/DX2                !
 ! D143  D(25,29,30,31)        -58.162          estimate D2E/DX2                !
 ! D144  D(25,29,30,32)       -178.0998         estimate D2E/DX2                !
 ! D145  D(43,29,30,28)       -176.6436         estimate D2E/DX2                !
 ! D146  D(43,29,30,31)         62.6955         estimate D2E/DX2                !
 ! D147  D(43,29,30,32)        -57.2423         estimate D2E/DX2                !
 ! D148  D(51,29,30,28)        -56.2409         estimate D2E/DX2                !
 ! D149  D(51,29,30,31)       -176.9018         estimate D2E/DX2                !
 ! D150  D(51,29,30,32)         63.1604         estimate D2E/DX2                !
 ! D151  D(25,29,43,44)         60.262          estimate D2E/DX2                !
 ! D152  D(25,29,43,45)       -179.7352         estimate D2E/DX2                !
 ! D153  D(25,29,43,46)        -59.7328         estimate D2E/DX2                !
 ! D154  D(30,29,43,44)        -59.8017         estimate D2E/DX2                !
 ! D155  D(30,29,43,45)         60.201          estimate D2E/DX2                !
 ! D156  D(30,29,43,46)       -179.7966         estimate D2E/DX2                !
 ! D157  D(51,29,43,44)        179.5641         estimate D2E/DX2                !
 ! D158  D(51,29,43,45)        -60.4332         estimate D2E/DX2                !
 ! D159  D(51,29,43,46)         59.5692         estimate D2E/DX2                !
 ! D160  D(25,29,51,49)        -86.8074         estimate D2E/DX2                !
 ! D161  D(25,29,51,52)        -13.4766         estimate D2E/DX2                !
 ! D162  D(25,29,51,53)         76.1453         estimate D2E/DX2                !
 ! D163  D(30,29,51,49)         32.9291         estimate D2E/DX2                !
 ! D164  D(30,29,51,52)        106.26           estimate D2E/DX2                !
 ! D165  D(30,29,51,53)       -164.1181         estimate D2E/DX2                !
 ! D166  D(43,29,51,49)        152.1287         estimate D2E/DX2                !
 ! D167  D(43,29,51,52)       -134.5404         estimate D2E/DX2                !
 ! D168  D(43,29,51,53)        -44.9186         estimate D2E/DX2                !
 ! D169  D(28,47,49,50)        139.8519         estimate D2E/DX2                !
 ! D170  D(28,47,49,51)         17.8471         estimate D2E/DX2                !
 ! D171  D(48,47,49,50)        -40.7458         estimate D2E/DX2                !
 ! D172  D(48,47,49,51)       -162.7506         estimate D2E/DX2                !
 ! D173  D(47,49,51,29)        -12.9724         estimate D2E/DX2                !
 ! D174  D(47,49,51,52)        -87.7069         estimate D2E/DX2                !
 ! D175  D(47,49,51,53)       -175.9833         estimate D2E/DX2                !
 ! D176  D(50,49,51,29)       -134.8945         estimate D2E/DX2                !
 ! D177  D(50,49,51,52)        150.3711         estimate D2E/DX2                !
 ! D178  D(50,49,51,53)         62.0946         estimate D2E/DX2                !
 ! D179  D(1,54,55,22)          10.9493         estimate D2E/DX2                !
 ! D180  D(1,54,55,23)        -168.6696         estimate D2E/DX2                !
 --------------------------------------------------------------------------------
 Trust Radius=3.00D-01 FncErr=1.00D-07 GrdErr=1.00D-06 EigMax=2.50D+02 EigMin=1.00D-04
 Number of steps in this run=    300 maximum allowed number of steps=    330.
 GradGradGradGradGradGradGradGradGradGradGradGradGradGradGradGradGradGrad

 Leave Link  103 at Wed Jul 10 10:43:45 2024, MaxMem=  2684354560 cpu:               0.2 elap:               0.0
 (Enter /mnt/data/applications/G16/g16/l202.exe)
 Symmetry turned off by external request.
 Stoichiometry    C25H24N2O3S
 Framework group  C1[X(C25H24N2O3S)]
 Deg. of freedom   159
 Full point group                 C1      NOp   1
                          Input orientation:                          
 ---------------------------------------------------------------------
 Center     Atomic      Atomic             Coordinates (Angstroms)
 Number     Number       Type             X           Y           Z
 ---------------------------------------------------------------------
      1          6           0       -1.338909    1.387511    0.410920
      2          6           0       -1.238581    2.658874   -0.027213
      3          6           0        0.005604    3.088818   -0.527597
      4          6           0        1.086897    2.176065   -0.544119
      5          6           0        0.925456    0.869297   -0.046250
      6          6           0       -0.283300    0.528767    0.443075
      7          6           0        2.510926    4.183215   -1.646926
      8          6           0        1.341329    4.947392   -1.542580
      9          6           0        1.362826    6.276185   -1.986714
     10          1           0        0.479954    6.876347   -1.913823
     11          6           0        2.498709    6.805446   -2.509431
     12          6           0        3.665718    6.031182   -2.612134
     13          6           0        3.672498    4.743791   -2.188438
     14          1           0       -2.080117    3.319201   -0.000742
     15          1           0        1.736445    0.171222   -0.051964
     16          1           0        2.504733    7.821099   -2.846037
     17          1           0        4.554065    6.459720   -3.026926
     18          1           0        4.564214    4.157664   -2.267895
     19          6           0        0.137478    4.420009   -1.003337
     20          8           0       -0.868297    5.174187   -0.945263
     21         16           0        2.492065    2.664381   -1.136868
     22          8           0       -0.664197   -0.712451    1.048764
     23          6           0       -3.084665   -1.701307    1.387232
     24          6           0       -2.387286   -2.751713    2.287046
     25          6           0       -4.344146   -1.151458    2.103088
     26          1           0       -1.508589   -3.117769    1.798455
     27          1           0       -4.818991   -0.418039    1.485391
     28          6           0       -2.000285   -2.105797    3.635070
     29          6           0       -3.903426   -0.512423    3.427550
     30          6           0       -3.249020   -1.568866    4.311547
     31          1           0       -3.940490   -2.367038    4.483583
     32          1           0       -2.973543   -1.126601    5.246127
     33          1           0       -3.060803   -3.563583    2.466181
     34          1           0       -5.031025   -1.948608    2.296876
     35          6           0       -3.493835   -2.358052    0.056075
     36          1           0       -3.972307   -1.632059   -0.567528
     37          1           0       -2.622696   -2.734326   -0.438409
     38          1           0       -4.170600   -3.164047    0.249118
     39          6           0       -1.347679   -3.160038    4.548550
     40          1           0       -1.089946   -2.710602    5.484735
     41          1           0       -2.035834   -3.962272    4.715519
     42          1           0       -0.463982   -3.539890    4.079927
     43          6           0       -5.112994    0.062970    4.187322
     44          1           0       -5.806054   -0.723396    4.402281
     45          1           0       -4.781247    0.506191    5.102932
     46          1           0       -5.592183    0.805848    3.584503
     47          6           0       -1.009175   -0.944000    3.418183
     48          8           0        0.214109   -1.135810    3.642784
     49          7           0       -1.450326    0.385176    2.941859
     50          1           0       -0.949699    1.094360    3.438041
     51          6           0       -2.903089    0.609344    3.102022
     52          1           0       -2.896317    0.143519    2.138707
     53          1           0       -3.299045    1.525454    2.716516
     54          7           0       -2.512779    0.687694    0.893693
     55          6           0       -2.111982   -0.540314    1.107570
 ---------------------------------------------------------------------
 Rotational constants (GHZ):           0.4081664           0.0702207           0.0663008
 Leave Link  202 at Wed Jul 10 10:43:45 2024, MaxMem=  2684354560 cpu:               0.1 elap:               0.0
 (Enter /mnt/data/applications/G16/g16/l301.exe)
 General basis read from cards:  (5D, 7F)
 Centers:       1      2      3      4      5      6      7      8      9     11
 Centers:      12     13     19     23     24     25     28     29     30     35
 Centers:      39     43     47     51     55     10     14     15     16     17
 Centers:      18     26     27     31     32     33     34     36     37     38
 Centers:      40     41     42     44     45     46     50     52     53     20
 Centers:      22     48     49     54     21
 cc-pVTZ
 ****
 ======================================================================================================
                                       Pseudopotential Parameters
 ======================================================================================================
  Center     Atomic      Valence      Angular      Power
  Number     Number     Electrons     Momentum     of R      Exponent        Coefficient   SO-Coeffient
 ======================================================================================================
    1          6
                                   No pseudopotential on this center.
    2          6
                                   No pseudopotential on this center.
    3          6
                                   No pseudopotential on this center.
    4          6
                                   No pseudopotential on this center.
    5          6
                                   No pseudopotential on this center.
    6          6
                                   No pseudopotential on this center.
    7          6
                                   No pseudopotential on this center.
    8          6
                                   No pseudopotential on this center.
    9          6
                                   No pseudopotential on this center.
   10          1
                                   No pseudopotential on this center.
   11          6
                                   No pseudopotential on this center.
   12          6
                                   No pseudopotential on this center.
   13          6
                                   No pseudopotential on this center.
   14          1
                                   No pseudopotential on this center.
   15          1
                                   No pseudopotential on this center.
   16          1
                                   No pseudopotential on this center.
   17          1
                                   No pseudopotential on this center.
   18          1
                                   No pseudopotential on this center.
   19          6
                                   No pseudopotential on this center.
   20          8
                                   No pseudopotential on this center.
   21         16
                                   No pseudopotential on this center.
   22          8
                                   No pseudopotential on this center.
   23          6
                                   No pseudopotential on this center.
   24          6
                                   No pseudopotential on this center.
   25          6
                                   No pseudopotential on this center.
   26          1
                                   No pseudopotential on this center.
   27          1
                                   No pseudopotential on this center.
   28          6
                                   No pseudopotential on this center.
   29          6
                                   No pseudopotential on this center.
   30          6
                                   No pseudopotential on this center.
   31          1
                                   No pseudopotential on this center.
   32          1
                                   No pseudopotential on this center.
   33          1
                                   No pseudopotential on this center.
   34          1
                                   No pseudopotential on this center.
   35          6
                                   No pseudopotential on this center.
   36          1
                                   No pseudopotential on this center.
   37          1
                                   No pseudopotential on this center.
   38          1
                                   No pseudopotential on this center.
   39          6
                                   No pseudopotential on this center.
   40          1
                                   No pseudopotential on this center.
   41          1
                                   No pseudopotential on this center.
   42          1
                                   No pseudopotential on this center.
   43          6
                                   No pseudopotential on this center.
   44          1
                                   No pseudopotential on this center.
   45          1
                                   No pseudopotential on this center.
   46          1
                                   No pseudopotential on this center.
   47          6
                                   No pseudopotential on this center.
   48          8
                                   No pseudopotential on this center.
   49          7
                                   No pseudopotential on this center.
   50          1
                                   No pseudopotential on this center.
   51          6
                                   No pseudopotential on this center.
   52          1
                                   No pseudopotential on this center.
   53          1
                                   No pseudopotential on this center.
   54          7
                                   No pseudopotential on this center.
   55          6
                                   No pseudopotential on this center.
 ======================================================================================================
 Ernie: Thresh=  0.10000D-02 Tol=  0.10000D-05 Strict=F.
 Ernie:  103 primitive shells out of 1032 were deleted.
  1270 basis functions,  2062 primitive gaussians,  1449 cartesian basis functions
   114 alpha electrons      114 beta electrons
       nuclear repulsion energy      3329.3541855266 Hartrees.
 IExCor=  402 DFT=T Ex+Corr=B3LYP ExCW=0 ScaHFX=  0.200000
 ScaDFX=  0.800000  0.720000  1.000000  0.810000 ScalE2=  1.000000  1.000000
 IRadAn=      5 IRanWt=     -1 IRanGd=            0 ICorTp=0 IEmpDi=141
 NAtoms=   55 NActive=   55 NUniq=   55 SFac= 1.00D+00 NAtFMM=   60 NAOKFM=F Big=F
 Integral buffers will be    131072 words long.
 Raffenetti 2 integral format.
 Two-electron integral symmetry is turned off.
 R6Disp:  Grimme-D3(BJ) Dispersion energy=       -0.1503664701 Hartrees.
 Nuclear repulsion after empirical dispersion term =     3329.2038190565 Hartrees.
 ------------------------------------------------------------------------------
 Polarizable Continuum Model (PCM)
 =================================
 Model                : PCM.
 Atomic radii         : UFF (Universal Force Field).
 Polarization charges : Total charges.
 Charge compensation  : None.
 Solution method      : On-the-fly selection.
 Cavity type          : Scaled VdW (van der Waals Surface) (Alpha=1.100).
 Cavity algorithm     : GePol (No added spheres)
                        Default sphere list used, NSphG=   55.
                        Lebedev-Laikov grids with approx.  5.0 points / Ang**2.
                        Smoothing algorithm: York/Karplus (Gamma=1.0000).
                        Polarization charges: spherical gaussians, with
                                              point-specific exponents (IZeta= 3).
                        Self-potential: point-specific (ISelfS= 7).
                        Self-field    : sphere-specific E.n sum rule (ISelfD= 2).
 1st derivatives      : Analytical E(r).r(x)/FMM algorithm (CHGder, D1EAlg=3).
                        Cavity 1st derivative terms included.
 Solvent              : Acetonitrile, Eps=  35.688000 Eps(inf)=   1.806874
 ------------------------------------------------------------------------------
 GePol: Number of generator spheres                  =      55
 GePol: Total number of spheres                      =      55
 GePol: Number of exposed spheres                    =      54 ( 98.18%)
 GePol: Number of points                             =    3537
 GePol: Average weight of points                     =       0.13
 GePol: Minimum weight of points                     =   0.33D-10
 GePol: Maximum weight of points                     =    0.20577
 GePol: Number of points with low weight             =     259
 GePol: Fraction of low-weight points (<1% of avg)   =       7.32%
 GePol: Cavity surface area                          =    456.609 Ang**2
 GePol: Cavity volume                                =    538.613 Ang**3
 Leave Link  301 at Wed Jul 10 10:43:45 2024, MaxMem=  2684354560 cpu:               2.2 elap:               0.2
 (Enter /mnt/data/applications/G16/g16/l302.exe)
 NPDir=0 NMtPBC=     1 NCelOv=     1 NCel=       1 NClECP=     1 NCelD=      1
         NCelK=      1 NCelE2=     1 NClLst=     1 CellRange=     0.0.
 One-electron integrals computed using PRISM.
   1 Symmetry operations used in ECPInt.
 ECPInt:  NShTT=  104196 NPrTT=  433376 LenC2=   79890 LenP2D=  203411.
 LDataN:  DoStor=T MaxTD1= 6 Len=  172
 NBasis=  1270 RedAO= T EigKep=  1.79D-05  NBF=  1270
 NBsUse=  1270 1.00D-06 EigRej= -1.00D+00 NBFU=  1270
 Precomputing XC quadrature grid using
 IXCGrd= 4 IRadAn=           5 IRanWt=          -1 IRanGd=           0 AccXCQ= 0.00D+00.
 Generated NRdTot=       0 NPtTot=           0 NUsed=           0 NTot=          32
 NSgBfM=  1400  1399  1399  1400  1400 MxSgAt=    55 MxSgA2=    55.
 Leave Link  302 at Wed Jul 10 10:43:55 2024, MaxMem=  2684354560 cpu:             112.7 elap:               9.4
 (Enter /mnt/data/applications/G16/g16/l303.exe)
 DipDrv:  MaxL=1.
 Leave Link  303 at Wed Jul 10 10:43:55 2024, MaxMem=  2684354560 cpu:               5.8 elap:               0.6
 (Enter /mnt/data/applications/G16/g16/l401.exe)
 ExpMin= 1.03D-01 ExpMax= 3.74D+05 ExpMxC= 1.18D+03 IAcc=3 IRadAn=         5 AccDes= 0.00D+00
 Harris functional with IExCor=  402 and IRadAn=       5 diagonalized for initial guess.
 HarFok:  IExCor=  402 AccDes= 0.00D+00 IRadAn=         5 IDoV= 1 UseB2=F ITyADJ=14
 ICtDFT=  3500011 ScaDFX=  1.000000  1.000000  1.000000  1.000000
 FoFCou: FMM=F IPFlag=           0 FMFlag=      100000 FMFlg1=           0
         NFxFlg=           0 DoJE=T BraDBF=F KetDBF=T FulRan=T
         wScrn=  0.000000 ICntrl=       500 IOpCl=  0 I1Cent=   200000004 NGrid=           0
         NMat0=    1 NMatS0=      1 NMatT0=    0 NMatD0=    1 NMtDS0=    0 NMtDT0=    0
 Symmetry not used in FoFCou.
 Harris En= -1700.92503083476    
 JPrj=0 DoOrth=F DoCkMO=F.
 Leave Link  401 at Wed Jul 10 10:44:40 2024, MaxMem=  2684354560 cpu:             533.2 elap:              44.6
 (Enter /mnt/data/applications/G16/g16/l502.exe)
 Two-electron integral symmetry not used.
 Closed shell SCF:
 Using DIIS extrapolation, IDIIS=  1040.
 NGot=  2684354560 LenX=  2680128848 LenY=  2678027798
 Requested convergence on RMS density matrix=1.00D-08 within 128 cycles.
 Requested convergence on MAX density matrix=1.00D-06.
 Requested convergence on             energy=1.00D-06.
 No special actions if energy rises.
 Fock matrices will be formed incrementally for  20 cycles.

 Cycle   1  Pass 1  IDiag  1:
 FoFJK:  IHMeth= 1 ICntrl=       0 DoSepK=F KAlg= 0 I1Cent=           0 FoldK=F
 IRaf= 680000000 NMat=       1 IRICut=       1 DoRegI=T DoRafI=F ISym2E= 0 IDoP0=0 IntGTp=1.
 FoFCou: FMM=F IPFlag=           0 FMFlag=      100000 FMFlg1=           0
         NFxFlg=           0 DoJE=F BraDBF=F KetDBF=F FulRan=T
         wScrn=  0.000000 ICntrl=         0 IOpCl=  0 I1Cent=           0 NGrid=           0
         NMat0=    1 NMatS0=      1 NMatT0=    0 NMatD0=    1 NMtDS0=    0 NMtDT0=    0
 Symmetry not used in FoFCou.
 Inv3:  Mode=1 IEnd=    37531107.
 Iteration    1 A*A^-1 deviation from unit magnitude is 2.66D-15 for    245.
 Iteration    1 A*A^-1 deviation from orthogonality  is 1.56D-15 for   2973   2521.
 Iteration    1 A^-1*A deviation from unit magnitude is 2.66D-15 for   3320.
 Iteration    1 A^-1*A deviation from orthogonality  is 8.77D-15 for   3134   3109.
 E= -1699.89903320484    
 DIIS: error= 1.63D-02 at cycle   1 NSaved=   1.
 NSaved= 1 IEnMin= 1 EnMin= -1699.89903320484     IErMin= 1 ErrMin= 1.63D-02
 ErrMax= 1.63D-02  0.00D+00 EMaxC= 1.00D-01 BMatC= 1.09D+00 BMatP= 1.09D+00
 IDIUse=3 WtCom= 8.37D-01 WtEn= 1.63D-01
 Coeff-Com:  0.100D+01
 Coeff-En:   0.100D+01
 Coeff:      0.100D+01
 Gap=     0.141 Goal=   None    Shift=    0.000
 GapD=    0.141 DampG=1.000 DampE=0.500 DampFc=0.5000 IDamp=-1.
 Damping current iteration by 5.00D-01
 RMSDP=6.53D-03 MaxDP=1.42D+00              OVMax= 4.27D-01

 Cycle   2  Pass 1  IDiag  1:
 RMSU=  3.26D-03    CP:  1.03D+00
 E= -1700.17982435193     Delta-E=       -0.280791147095 Rises=F Damp=T
 DIIS: error= 4.89D-03 at cycle   2 NSaved=   2.
 NSaved= 2 IEnMin= 2 EnMin= -1700.17982435193     IErMin= 2 ErrMin= 4.89D-03
 ErrMax= 4.89D-03  0.00D+00 EMaxC= 1.00D-01 BMatC= 1.59D-01 BMatP= 1.09D+00
 IDIUse=3 WtCom= 9.51D-01 WtEn= 4.89D-02
 Coeff-Com:  0.183D+00 0.817D+00
 Coeff-En:   0.319D+00 0.681D+00
 Coeff:      0.190D+00 0.810D+00
 Gap=     0.242 Goal=   None    Shift=    0.000
 RMSDP=2.74D-03 MaxDP=5.86D-01 DE=-2.81D-01 OVMax= 3.60D-01

 Cycle   3  Pass 1  IDiag  1:
 RMSU=  8.46D-04    CP:  1.01D+00  2.02D-01
 E= -1700.67622783830     Delta-E=       -0.496403486371 Rises=F Damp=F
 DIIS: error= 1.12D-02 at cycle   3 NSaved=   3.
 NSaved= 3 IEnMin= 3 EnMin= -1700.67622783830     IErMin= 2 ErrMin= 4.89D-03
 ErrMax= 1.12D-02  0.00D+00 EMaxC= 1.00D-01 BMatC= 2.06D-01 BMatP= 1.59D-01
 IDIUse=2 WtCom= 0.00D+00 WtEn= 1.00D+00
 Coeff-En:   0.000D+00 0.000D+00 0.100D+01
 Coeff:      0.000D+00 0.000D+00 0.100D+01
 Gap=     0.132 Goal=   None    Shift=    0.000
 RMSDP=2.85D-03 MaxDP=5.45D-01 DE=-4.96D-01 OVMax= 4.79D-01

 Cycle   4  Pass 1  IDiag  1:
 RMSU=  8.07D-04    CP:  1.03D+00  9.86D-01 -1.32D-01
 E= -1699.72014160443     Delta-E=        0.956086233869 Rises=F Damp=F
 DIIS: error= 1.91D-02 at cycle   4 NSaved=   4.
 NSaved= 4 IEnMin= 3 EnMin= -1700.67622783830     IErMin= 2 ErrMin= 4.89D-03
 ErrMax= 1.91D-02  0.00D+00 EMaxC= 1.00D-01 BMatC= 1.38D+00 BMatP= 1.59D-01
 IDIUse=2 WtCom= 0.00D+00 WtEn= 1.00D+00
 Coeff-En:   0.000D+00 0.000D+00 0.812D+00 0.188D+00
 Coeff:      0.000D+00 0.000D+00 0.812D+00 0.188D+00
 Gap=     0.121 Goal=   None    Shift=    0.000
 RMSDP=1.95D-03 MaxDP=4.12D-01 DE= 9.56D-01 OVMax= 1.89D-01

 Cycle   5  Pass 1  IDiag  1:
 RMSU=  2.01D-04    CP:  1.01D+00  4.23D-01  4.86D-01  5.62D-01
 E= -1700.75285828108     Delta-E=       -1.032716676648 Rises=F Damp=F
 DIIS: error= 6.90D-03 at cycle   5 NSaved=   5.
 NSaved= 5 IEnMin= 5 EnMin= -1700.75285828108     IErMin= 2 ErrMin= 4.89D-03
 ErrMax= 6.90D-03  0.00D+00 EMaxC= 1.00D-01 BMatC= 1.15D-01 BMatP= 1.59D-01
 IDIUse=3 WtCom= 9.31D-01 WtEn= 6.90D-02
 Coeff-Com:  0.553D-03 0.272D-01 0.338D+00-0.865D-01 0.721D+00
 Coeff-En:   0.000D+00 0.000D+00 0.391D+00 0.000D+00 0.609D+00
 Coeff:      0.515D-03 0.253D-01 0.342D+00-0.805D-01 0.713D+00
 Gap=     0.105 Goal=   None    Shift=    0.000
 RMSDP=4.86D-04 MaxDP=8.11D-02 DE=-1.03D+00 OVMax= 7.85D-02

 Cycle   6  Pass 1  IDiag  1:
 RMSU=  4.83D-05    CP:  1.01D+00  2.99D-01  7.11D-01  3.36D-01  7.35D-01
 E= -1700.84462126026     Delta-E=       -0.091762979174 Rises=F Damp=F
 DIIS: error= 5.11D-04 at cycle   6 NSaved=   6.
 NSaved= 6 IEnMin= 6 EnMin= -1700.84462126026     IErMin= 6 ErrMin= 5.11D-04
 ErrMax= 5.11D-04  0.00D+00 EMaxC= 1.00D-01 BMatC= 9.02D-04 BMatP= 1.15D-01
 IDIUse=3 WtCom= 9.95D-01 WtEn= 5.11D-03
 Coeff-Com: -0.899D-03 0.115D-01 0.175D+00-0.649D-01 0.440D+00 0.439D+00
 Coeff-En:   0.000D+00 0.000D+00 0.000D+00 0.000D+00 0.000D+00 0.100D+01
 Coeff:     -0.894D-03 0.115D-01 0.174D+00-0.646D-01 0.438D+00 0.442D+00
 Gap=     0.101 Goal=   None    Shift=    0.000
 RMSDP=3.62D-05 MaxDP=4.81D-03 DE=-9.18D-02 OVMax= 8.98D-03

 Cycle   7  Pass 1  IDiag  1:
 RMSU=  1.96D-05    CP:  1.01D+00  3.06D-01  7.05D-01  3.42D-01  7.80D-01
                    CP:  5.93D-01
 E= -1700.84529711951     Delta-E=       -0.000675859253 Rises=F Damp=F
 DIIS: error= 1.73D-04 at cycle   7 NSaved=   7.
 NSaved= 7 IEnMin= 7 EnMin= -1700.84529711951     IErMin= 7 ErrMin= 1.73D-04
 ErrMax= 1.73D-04  0.00D+00 EMaxC= 1.00D-01 BMatC= 1.20D-04 BMatP= 9.02D-04
 IDIUse=3 WtCom= 9.98D-01 WtEn= 1.73D-03
 Coeff-Com:  0.474D-03-0.705D-04 0.459D-01-0.190D-01 0.113D+00 0.249D+00
 Coeff-Com:  0.611D+00
 Coeff-En:   0.000D+00 0.000D+00 0.000D+00 0.000D+00 0.000D+00 0.861D-01
 Coeff-En:   0.914D+00
 Coeff:      0.473D-03-0.704D-04 0.458D-01-0.190D-01 0.113D+00 0.248D+00
 Coeff:      0.611D+00
 Gap=     0.102 Goal=   None    Shift=    0.000
 RMSDP=1.67D-05 MaxDP=2.35D-03 DE=-6.76D-04 OVMax= 3.99D-03

 Cycle   8  Pass 1  IDiag  1:
 RMSU=  6.40D-06    CP:  1.01D+00  3.02D-01  7.08D-01  3.40D-01  7.64D-01
                    CP:  7.28D-01  7.42D-01
 E= -1700.84538198055     Delta-E=       -0.000084861039 Rises=F Damp=F
 DIIS: error= 6.86D-05 at cycle   8 NSaved=   8.
 NSaved= 8 IEnMin= 8 EnMin= -1700.84538198055     IErMin= 8 ErrMin= 6.86D-05
 ErrMax= 6.86D-05  0.00D+00 EMaxC= 1.00D-01 BMatC= 2.21D-05 BMatP= 1.20D-04
 IDIUse=1 WtCom= 1.00D+00 WtEn= 0.00D+00
 Coeff-Com:  0.711D-03-0.262D-02 0.868D-02-0.320D-02 0.153D-01 0.109D+00
 Coeff-Com:  0.406D+00 0.467D+00
 Coeff:      0.711D-03-0.262D-02 0.868D-02-0.320D-02 0.153D-01 0.109D+00
 Coeff:      0.406D+00 0.467D+00
 Gap=     0.102 Goal=   None    Shift=    0.000
 RMSDP=5.52D-06 MaxDP=5.52D-04 DE=-8.49D-05 OVMax= 1.05D-03

 Cycle   9  Pass 1  IDiag  1:
 RMSU=  3.05D-06    CP:  1.01D+00  3.01D-01  7.11D-01  3.38D-01  7.59D-01
                    CP:  7.18D-01  8.54D-01  7.03D-01
 E= -1700.84540148503     Delta-E=       -0.000019504486 Rises=F Damp=F
 DIIS: error= 1.61D-05 at cycle   9 NSaved=   9.
 NSaved= 9 IEnMin= 9 EnMin= -1700.84540148503     IErMin= 9 ErrMin= 1.61D-05
 ErrMax= 1.61D-05  0.00D+00 EMaxC= 1.00D-01 BMatC= 7.28D-07 BMatP= 2.21D-05
 IDIUse=1 WtCom= 1.00D+00 WtEn= 0.00D+00
 Coeff-Com:  0.354D-03-0.128D-02 0.284D-03 0.109D-03-0.248D-02 0.328D-01
 Coeff-Com:  0.147D+00 0.218D+00 0.606D+00
 Coeff:      0.354D-03-0.128D-02 0.284D-03 0.109D-03-0.248D-02 0.328D-01
 Coeff:      0.147D+00 0.218D+00 0.606D+00
 Gap=     0.102 Goal=   None    Shift=    0.000
 RMSDP=9.76D-07 MaxDP=6.83D-05 DE=-1.95D-05 OVMax= 4.76D-04

 Cycle  10  Pass 1  IDiag  1:
 RMSU=  7.15D-07    CP:  1.01D+00  3.01D-01  7.10D-01  3.38D-01  7.59D-01
                    CP:  7.25D-01  8.57D-01  7.67D-01  9.12D-01
 E= -1700.84540206385     Delta-E=       -0.000000578816 Rises=F Damp=F
 DIIS: error= 8.06D-06 at cycle  10 NSaved=  10.
 NSaved=10 IEnMin=10 EnMin= -1700.84540206385     IErMin=10 ErrMin= 8.06D-06
 ErrMax= 8.06D-06  0.00D+00 EMaxC= 1.00D-01 BMatC= 1.97D-07 BMatP= 7.28D-07
 IDIUse=1 WtCom= 1.00D+00 WtEn= 0.00D+00
 Coeff-Com:  0.816D-04-0.230D-03-0.149D-02 0.535D-03-0.410D-02 0.258D-02
 Coeff-Com:  0.238D-01 0.465D-01 0.360D+00 0.572D+00
 Coeff:      0.816D-04-0.230D-03-0.149D-02 0.535D-03-0.410D-02 0.258D-02
 Coeff:      0.238D-01 0.465D-01 0.360D+00 0.572D+00
 Gap=     0.102 Goal=   None    Shift=    0.000
 RMSDP=4.53D-07 MaxDP=5.67D-05 DE=-5.79D-07 OVMax= 1.01D-04

 Cycle  11  Pass 1  IDiag  1:
 RMSU=  2.49D-07    CP:  1.01D+00  3.01D-01  7.10D-01  3.38D-01  7.59D-01
                    CP:  7.27D-01  8.63D-01  7.65D-01  9.74D-01  8.80D-01
 E= -1700.84540223934     Delta-E=       -0.000000175488 Rises=F Damp=F
 DIIS: error= 4.11D-06 at cycle  11 NSaved=  11.
 NSaved=11 IEnMin=11 EnMin= -1700.84540223934     IErMin=11 ErrMin= 4.11D-06
 ErrMax= 4.11D-06  0.00D+00 EMaxC= 1.00D-01 BMatC= 1.77D-08 BMatP= 1.97D-07
 IDIUse=1 WtCom= 1.00D+00 WtEn= 0.00D+00
 Coeff-Com: -0.679D-05 0.249D-04-0.628D-03 0.164D-03-0.119D-02-0.893D-03
 Coeff-Com:  0.246D-05-0.179D-02 0.111D+00 0.234D+00 0.660D+00
 Coeff:     -0.679D-05 0.249D-04-0.628D-03 0.164D-03-0.119D-02-0.893D-03
 Coeff:      0.246D-05-0.179D-02 0.111D+00 0.234D+00 0.660D+00
 Gap=     0.102 Goal=   None    Shift=    0.000
 RMSDP=3.08D-07 MaxDP=4.79D-05 DE=-1.75D-07 OVMax= 5.94D-05

 Cycle  12  Pass 1  IDiag  1:
 RMSU=  1.35D-07    CP:  1.01D+00  3.01D-01  7.10D-01  3.38D-01  7.59D-01
                    CP:  7.27D-01  8.64D-01  7.73D-01  9.81D-01  9.38D-01
                    CP:  9.26D-01
 E= -1700.84540225201     Delta-E=       -0.000000012667 Rises=F Damp=F
 DIIS: error= 9.52D-07 at cycle  12 NSaved=  12.
 NSaved=12 IEnMin=12 EnMin= -1700.84540225201     IErMin=12 ErrMin= 9.52D-07
 ErrMax= 9.52D-07  0.00D+00 EMaxC= 1.00D-01 BMatC= 5.17D-09 BMatP= 1.77D-08
 IDIUse=1 WtCom= 1.00D+00 WtEn= 0.00D+00
 Coeff-Com: -0.216D-04 0.521D-04-0.211D-03 0.567D-04-0.215D-03-0.135D-02
 Coeff-Com: -0.457D-02-0.116D-01 0.821D-02 0.425D-01 0.441D+00 0.526D+00
 Coeff:     -0.216D-04 0.521D-04-0.211D-03 0.567D-04-0.215D-03-0.135D-02
 Coeff:     -0.457D-02-0.116D-01 0.821D-02 0.425D-01 0.441D+00 0.526D+00
 Gap=     0.102 Goal=   None    Shift=    0.000
 RMSDP=1.09D-07 MaxDP=1.45D-05 DE=-1.27D-08 OVMax= 2.07D-05

 Cycle  13  Pass 1  IDiag  1:
 RMSU=  4.07D-08    CP:  1.01D+00  3.01D-01  7.10D-01  3.38D-01  7.59D-01
                    CP:  7.28D-01  8.65D-01  7.72D-01  9.93D-01  9.59D-01
                    CP:  1.06D+00  6.80D-01
 E= -1700.84540225640     Delta-E=       -0.000000004398 Rises=F Damp=F
 DIIS: error= 4.87D-07 at cycle  13 NSaved=  13.
 NSaved=13 IEnMin=13 EnMin= -1700.84540225640     IErMin=13 ErrMin= 4.87D-07
 ErrMax= 4.87D-07  0.00D+00 EMaxC= 1.00D-01 BMatC= 3.66D-10 BMatP= 5.17D-09
 IDIUse=1 WtCom= 1.00D+00 WtEn= 0.00D+00
 Coeff-Com: -0.122D-04 0.275D-04-0.236D-04-0.122D-05 0.921D-04-0.550D-03
 Coeff-Com: -0.216D-02-0.651D-02-0.933D-02-0.103D-01 0.161D+00 0.268D+00
 Coeff-Com:  0.600D+00
 Coeff:     -0.122D-04 0.275D-04-0.236D-04-0.122D-05 0.921D-04-0.550D-03
 Coeff:     -0.216D-02-0.651D-02-0.933D-02-0.103D-01 0.161D+00 0.268D+00
 Coeff:      0.600D+00
 Gap=     0.102 Goal=   None    Shift=    0.000
 RMSDP=4.13D-08 MaxDP=6.90D-06 DE=-4.40D-09 OVMax= 1.12D-05

 Cycle  14  Pass 1  IDiag  1:
 RMSU=  1.36D-08    CP:  1.01D+00  3.01D-01  7.10D-01  3.38D-01  7.59D-01
                    CP:  7.28D-01  8.65D-01  7.72D-01  9.95D-01  9.66D-01
                    CP:  1.08D+00  7.85D-01  9.27D-01
 E= -1700.84540225626     Delta-E=        0.000000000148 Rises=F Damp=F
 DIIS: error= 1.84D-07 at cycle  14 NSaved=  14.
 NSaved=14 IEnMin=13 EnMin= -1700.84540225640     IErMin=14 ErrMin= 1.84D-07
 ErrMax= 1.84D-07  0.00D+00 EMaxC= 1.00D-01 BMatC= 8.34D-11 BMatP= 3.66D-10
 IDIUse=1 WtCom= 1.00D+00 WtEn= 0.00D+00
 Coeff-Com: -0.372D-05 0.753D-05 0.111D-04-0.459D-05 0.637D-04-0.170D-03
 Coeff-Com: -0.577D-03-0.221D-02-0.708D-02-0.151D-01 0.272D-01 0.694D-01
 Coeff-Com:  0.397D+00 0.531D+00
 Coeff:     -0.372D-05 0.753D-05 0.111D-04-0.459D-05 0.637D-04-0.170D-03
 Coeff:     -0.577D-03-0.221D-02-0.708D-02-0.151D-01 0.272D-01 0.694D-01
 Coeff:      0.397D+00 0.531D+00
 Gap=     0.102 Goal=   None    Shift=    0.000
 RMSDP=1.36D-08 MaxDP=1.87D-06 DE= 1.48D-10 OVMax= 2.85D-06

 Cycle  15  Pass 1  IDiag  1:
 RMSU=  5.76D-09    CP:  1.01D+00  3.01D-01  7.10D-01  3.38D-01  7.59D-01
                    CP:  7.28D-01  8.65D-01  7.72D-01  9.96D-01  9.70D-01
                    CP:  1.10D+00  7.89D-01  9.91D-01  6.73D-01
 E= -1700.84540225651     Delta-E=       -0.000000000258 Rises=F Damp=F
 DIIS: error= 6.33D-08 at cycle  15 NSaved=  15.
 NSaved=15 IEnMin=15 EnMin= -1700.84540225651     IErMin=15 ErrMin= 6.33D-08
 ErrMax= 6.33D-08  0.00D+00 EMaxC= 1.00D-01 BMatC= 8.45D-12 BMatP= 8.34D-11
 IDIUse=1 WtCom= 1.00D+00 WtEn= 0.00D+00
 Coeff-Com: -0.602D-06 0.124D-05 0.101D-04-0.369D-05 0.290D-04-0.253D-04
 Coeff-Com: -0.148D-04-0.451D-03-0.258D-02-0.726D-02-0.189D-02 0.560D-02
 Coeff-Com:  0.162D+00 0.295D+00 0.550D+00
 Coeff:     -0.602D-06 0.124D-05 0.101D-04-0.369D-05 0.290D-04-0.253D-04
 Coeff:     -0.148D-04-0.451D-03-0.258D-02-0.726D-02-0.189D-02 0.560D-02
 Coeff:      0.162D+00 0.295D+00 0.550D+00
 Gap=     0.102 Goal=   None    Shift=    0.000
 RMSDP=4.16D-09 MaxDP=3.68D-07 DE=-2.58D-10 OVMax= 2.07D-06

 Error on total polarization charges =  0.02061
 SCF Done:  E(RB3LYP) =  -1700.84540226     A.U. after   15 cycles
            NFock= 15  Conv=0.42D-08     -V/T= 2.0046
 KE= 1.693134129463D+03 PE=-1.063592595256D+04 EE= 3.912742601781D+03
 Leave Link  502 at Wed Jul 10 12:57:11 2024, MaxMem=  2684354560 cpu:           95076.1 elap:            7951.2
 (Enter /mnt/data/applications/G16/g16/l601.exe)
 Copying SCF densities to generalized density rwf, IOpCl= 0 IROHF=0.

 **********************************************************************

            Population analysis using the SCF density.

 **********************************************************************

 Alpha  occ. eigenvalues --  -88.92170 -19.20613 -19.11187 -19.09326 -14.33554
 Alpha  occ. eigenvalues --  -14.33338 -10.30126 -10.29273 -10.25781 -10.25334
 Alpha  occ. eigenvalues --  -10.23755 -10.23081 -10.22551 -10.22115 -10.20620
 Alpha  occ. eigenvalues --  -10.20345 -10.20314 -10.19670 -10.19555 -10.19544
 Alpha  occ. eigenvalues --  -10.19447 -10.19383 -10.18680 -10.18388 -10.18368
 Alpha  occ. eigenvalues --  -10.17319 -10.17110 -10.16644 -10.15719 -10.15216
 Alpha  occ. eigenvalues --  -10.14850  -7.98123  -5.94461  -5.93990  -5.93817
 Alpha  occ. eigenvalues --   -1.11033  -1.02934  -1.01980  -0.97367  -0.93420
 Alpha  occ. eigenvalues --   -0.91401  -0.89046  -0.87406  -0.84999  -0.81209
 Alpha  occ. eigenvalues --   -0.80750  -0.79668  -0.78610  -0.77626  -0.73944
 Alpha  occ. eigenvalues --   -0.71182  -0.70128  -0.69358  -0.69066  -0.68088
 Alpha  occ. eigenvalues --   -0.65830  -0.64573  -0.63465  -0.63000  -0.60757
 Alpha  occ. eigenvalues --   -0.58516  -0.57036  -0.56645  -0.55594  -0.54361
 Alpha  occ. eigenvalues --   -0.52398  -0.51988  -0.50669  -0.50117  -0.49523
 Alpha  occ. eigenvalues --   -0.49017  -0.47613  -0.47026  -0.46735  -0.46489
 Alpha  occ. eigenvalues --   -0.45873  -0.45571  -0.45215  -0.45085  -0.44141
 Alpha  occ. eigenvalues --   -0.43015  -0.42384  -0.41948  -0.41591  -0.41301
 Alpha  occ. eigenvalues --   -0.40241  -0.40199  -0.39980  -0.39330  -0.39108
 Alpha  occ. eigenvalues --   -0.38797  -0.38600  -0.38451  -0.37661  -0.37591
 Alpha  occ. eigenvalues --   -0.37402  -0.37141  -0.36737  -0.36197  -0.34481
 Alpha  occ. eigenvalues --   -0.34162  -0.33501  -0.33147  -0.32150  -0.31280
 Alpha  occ. eigenvalues --   -0.30062  -0.29503  -0.27712  -0.27222  -0.26870
 Alpha  occ. eigenvalues --   -0.25767  -0.25665  -0.22421  -0.18866
 Alpha virt. eigenvalues --   -0.08684  -0.06202  -0.03970  -0.01990  -0.01635
 Alpha virt. eigenvalues --   -0.00550   0.03456   0.04416   0.04784   0.05088
 Alpha virt. eigenvalues --    0.05469   0.05718   0.06203   0.06443   0.07340
 Alpha virt. eigenvalues --    0.07479   0.07925   0.08577   0.09224   0.09617
 Alpha virt. eigenvalues --    0.09948   0.10528   0.10563   0.10658   0.11253
 Alpha virt. eigenvalues --    0.11895   0.12212   0.12686   0.12879   0.13375
 Alpha virt. eigenvalues --    0.13574   0.14209   0.14438   0.14839   0.15304
 Alpha virt. eigenvalues --    0.15573   0.16125   0.16510   0.16811   0.17506
 Alpha virt. eigenvalues --    0.17556   0.17985   0.18300   0.18906   0.19806
 Alpha virt. eigenvalues --    0.20226   0.20875   0.21457   0.21726   0.22047
 Alpha virt. eigenvalues --    0.22655   0.22902   0.23440   0.24185   0.24433
 Alpha virt. eigenvalues --    0.24496   0.24732   0.25028   0.25550   0.25899
 Alpha virt. eigenvalues --    0.26182   0.26318   0.26517   0.27802   0.28013
 Alpha virt. eigenvalues --    0.28280   0.28546   0.28814   0.29298   0.29789
 Alpha virt. eigenvalues --    0.30143   0.30493   0.30846   0.31270   0.31400
 Alpha virt. eigenvalues --    0.31891   0.32029   0.32621   0.33049   0.33553
 Alpha virt. eigenvalues --    0.33924   0.34415   0.34549   0.34866   0.35339
 Alpha virt. eigenvalues --    0.35900   0.36466   0.36772   0.36892   0.37264
 Alpha virt. eigenvalues --    0.37465   0.37758   0.38180   0.38329   0.39154
 Alpha virt. eigenvalues --    0.39546   0.39591   0.40184   0.40584   0.40921
 Alpha virt. eigenvalues --    0.41333   0.41611   0.41921   0.42061   0.42362
 Alpha virt. eigenvalues --    0.42715   0.42974   0.43426   0.43724   0.43787
 Alpha virt. eigenvalues --    0.44318   0.44499   0.44676   0.44691   0.45331
 Alpha virt. eigenvalues --    0.45424   0.45738   0.46001   0.46185   0.46415
 Alpha virt. eigenvalues --    0.46489   0.46843   0.47060   0.47250   0.47603
 Alpha virt. eigenvalues --    0.48033   0.48145   0.48458   0.48641   0.48961
 Alpha virt. eigenvalues --    0.49391   0.49898   0.50038   0.50238   0.51069
 Alpha virt. eigenvalues --    0.51131   0.51643   0.52027   0.52181   0.52890
 Alpha virt. eigenvalues --    0.53222   0.54111   0.54341   0.54717   0.54820
 Alpha virt. eigenvalues --    0.55037   0.55456   0.55875   0.56008   0.56521
 Alpha virt. eigenvalues --    0.56899   0.57175   0.57744   0.58168   0.58427
 Alpha virt. eigenvalues --    0.59111   0.59709   0.60422   0.60781   0.61248
 Alpha virt. eigenvalues --    0.61438   0.61965   0.62241   0.62848   0.63433
 Alpha virt. eigenvalues --    0.63931   0.64819   0.65407   0.65625   0.67502
 Alpha virt. eigenvalues --    0.67607   0.68017   0.69219   0.69529   0.70161
 Alpha virt. eigenvalues --    0.70278   0.70678   0.70805   0.71555   0.72173
 Alpha virt. eigenvalues --    0.72408   0.73043   0.73842   0.74087   0.74365
 Alpha virt. eigenvalues --    0.74585   0.74864   0.75095   0.75554   0.75808
 Alpha virt. eigenvalues --    0.76418   0.76766   0.76990   0.77517   0.78090
 Alpha virt. eigenvalues --    0.78390   0.79117   0.79592   0.80010   0.80421
 Alpha virt. eigenvalues --    0.80982   0.81349   0.81949   0.82867   0.83028
 Alpha virt. eigenvalues --    0.83456   0.84010   0.84897   0.85570   0.86000
 Alpha virt. eigenvalues --    0.86069   0.86844   0.87195   0.87311   0.87951
 Alpha virt. eigenvalues --    0.88549   0.88937   0.89192   0.89697   0.89819
 Alpha virt. eigenvalues --    0.89959   0.90434   0.90613   0.91007   0.91334
 Alpha virt. eigenvalues --    0.91792   0.92291   0.92490   0.93084   0.93519
 Alpha virt. eigenvalues --    0.93880   0.94348   0.94727   0.94881   0.95514
 Alpha virt. eigenvalues --    0.95889   0.95963   0.96201   0.96703   0.97567
 Alpha virt. eigenvalues --    0.98015   0.98122   0.98864   0.99168   0.99764
 Alpha virt. eigenvalues --    0.99888   1.00595   1.01136   1.01779   1.01979
 Alpha virt. eigenvalues --    1.02363   1.03376   1.03861   1.04173   1.04568
 Alpha virt. eigenvalues --    1.05044   1.05464   1.05795   1.06327   1.06788
 Alpha virt. eigenvalues --    1.07304   1.08113   1.08293   1.09042   1.09165
 Alpha virt. eigenvalues --    1.09801   1.10125   1.10651   1.10765   1.11606
 Alpha virt. eigenvalues --    1.12085   1.12416   1.13110   1.13617   1.13916
 Alpha virt. eigenvalues --    1.14558   1.15266   1.16051   1.16176   1.16520
[...]
 00266,0.00000090,0.00001345,0.00000985,-0.00000205,0.00001309,0.000010
 49,-0.00001340,-0.00001018,0.00002285,0.00000007,-0.00000062,-0.000006
 75,0.00001136,0.00001312,-0.00000245,-0.00001238,0.00001265,-0.0000038
 4,0.00019257,0.00015662,-0.00027718,0.00017015,-0.00001576,0.00011426,
 -0.00007961,0.00003517,0.00015553,0.00029838,0.00003866,-0.00000901,0.
 00176875,-0.00156178,0.00006323,-0.00024727,-0.00005779,-0.00039884,-0
 .00029794,-0.00496725,0.00705727,-0.00053936,0.00027805,0.00053096,-0.
 04578819,0.12537578,-0.18186881,0.04829127,-0.13208640,0.19213094,-0.0
 0003007,-0.00010640,-0.00003299,0.00002450,0.00002935,-0.00002059,-0.0
 0002191,-0.00002434,0.00001681,0.00000833,0.00000860,-0.00000523,-0.00
 000103,-0.00001255,0.00001451,0.00013495,0.00015938,-0.00012337,-0.000
 00072,0.00000200,-0.00000059,-0.00000217,-0.00000271,0.00000056,-0.000
 00049,0.00000146,-0.00000041,0.00000039,0.00000015,-0.00000006,-0.0000
 0091,-0.00000059,0.00000044,-0.00000069,-0.00000026,0.00000023,0.00000
 027,-0.00000232,0.00000085,-0.00000168,-0.00000280,-0.00000201,0.00000
 418,-0.00000103,-0.00000673,-0.00000019,-0.00000041,0.00000018,-0.0000
 0024,-0.00000023,0.00000011,-0.00000007,0.00000017,-0.00000009,-0.0000
 0223,0.00003210,-0.00000915,0.00001064,-0.00001555,0.00000246,0.000001
 49,-0.00000305,0.00000010,0.00020995,-0.00000510,0.00029002,-0.0003554
 9,0.00013517,0.00013803,0.00005245,0.00014434,-0.00041490,-0.00193603,
 -0.00341338,0.00053171,0.00002244,-0.00007487,0.00001784,0.00011457,0.
 00007957,0.00024604,-0.00000885,-0.00001012,0.00013448,0.00037491,-0.0
 0719390,-0.01578767,-0.00031385,0.00084931,0.00001401,0.00003533,0.000
 03260,0.00005740,0.00014301,0.00000324,0.00019042,0.00005068,0.0000880
 7,0.00012375,-0.00010539,-0.00055722,-0.00115392,0.00018391,-0.0000589
 2,-0.00005367,0.00000540,0.00001020,0.00003932,0.00002092,-0.00002331,
 -0.00008142,0.00000398,0.00003440,0.00002877,0.00025927,0.00004289,0.0
 0005399,-0.00001744,-0.00000919,-0.00000814,0.00000377,0.00010566,-0.0
 0004841,0.00000163,-0.00008289,-0.00000718,-0.00027924,-0.00206000,-0.
 00185695,-0.00008790,0.00026344,0.00006024,-0.00025960,-0.00038293,0.0
 0035682,0.00004384,0.00013414,-0.00007721,0.00338728,-0.00736522,0.005
 27610,-0.00470141,0.00173492,-0.00202588,-0.02317968,0.02512396,0.0299
 3536,0.00032776,-0.00001438,-0.00017447,-0.04724691,0.01247933,0.02775
 561,0.00269938,-0.00355590,-0.00574601,0.07081002,0.00010815,0.0001614
 7,-0.00005263,-0.00001712,-0.00003479,0.00001447,0.00002379,-0.0000080
 0,-0.00000379,-0.00000363,0.00002019,-0.00000392,-0.00002184,0.0000011
 0,0.00000133,-0.00001171,0.00005094,-0.00002580,-0.00000034,0.00000149
 ,-0.00000011,-0.00000034,-0.00000211,0.00000057,-0.00000063,0.00000022
 ,-0.00000013,0.00000011,0.,0.00000007,-0.00000009,-0.00000074,0.000000
 26,-0.00000014,0.00000002,-0.00000002,0.00000009,-0.00000085,0.0000002
 5,0.00000109,0.00000052,0.00000250,-0.00000410,-0.00000215,0.00000139,
 -0.00000006,-0.00000006,0.00000007,-0.00000005,-0.00000008,0.00000005,
 -0.00000001,0.00000006,0.00000002,0.00000031,0.00000313,-0.00000065,-0
 .00000084,-0.00000339,0.00000062,-0.00000346,-0.00000151,0.00000038,-0
 .00027266,0.00010480,-0.00000947,-0.00022670,0.00012436,0.00028463,0.0
 0004906,0.00008368,-0.00004592,-0.00253523,-0.00374206,0.00170204,0.00
 003117,-0.00005425,0.00001985,-0.00007734,0.00015617,-0.00001280,-0.00
 008509,-0.00012812,-0.00009619,0.00037390,-0.01210130,-0.02587532,0.00
 009574,0.00100247,-0.00106747,-0.00016506,0.00014556,0.00040324,0.0002
 2909,-0.00026561,0.00068466,-0.00001371,0.00000353,-0.00001678,-0.0003
 9048,-0.00046073,-0.00145085,0.00019634,-0.00000571,-0.00010612,-0.000
 01357,0.00000170,0.00000937,0.00001366,-0.00003245,-0.00008550,0.00001
 648,0.00005163,0.00003984,-0.00001443,-0.00000766,-0.00001969,0.000008
 47,-0.00000465,0.00001555,-0.00001156,-0.00001937,0.00000618,0.0000031
 1,0.00000176,0.00000638,0.00134277,0.00093592,-0.00124852,0.00046060,0
 .00016438,0.00031362,-0.00055674,0.00009336,0.00074114,-0.00019518,0.0
 0005313,0.00013304,0.00055081,0.00154476,-0.00130220,0.00021455,-0.000
 51565,0.00053602,0.00772429,-0.00225119,-0.00634418,-0.00000449,-0.000
 06080,0.00026037,0.01280432,-0.09114214,-0.08665276,-0.00315182,0.0099
 2556,0.01888917,-0.01647148,0.09648437,-0.00025311,-0.00022691,0.00011
 453,0.00000107,-0.00002711,0.00000115,0.00005631,0.00008302,-0.0000317
 8,-0.00002395,-0.00000511,0.00000064,0.00001235,0.00002232,0.00000012,
 0.00002925,-0.00021007,0.00012343,0.00000752,-0.00003537,0.00000997,-0
 .00000182,0.00001171,-0.00000385,0.00001093,0.00000054,-0.00000220,-0.
 00000217,-0.00000072,0.00000023,-0.00000571,0.00000702,-0.00000080,0.0
 0000925,-0.00000921,0.00000112,0.00000505,0.00002538,-0.00000898,-0.00
 000228,-0.00000301,-0.00000403,0.00001393,0.00000231,-0.00000128,0.000
 00093,0.00000225,-0.00000115,0.00000158,0.00000147,-0.00000097,0.00000
 059,-0.00000121,0.00000013,0.00002710,-0.00012831,0.00003545,-0.000037
 04,0.00007076,-0.00001293,0.00003053,0.00003351,-0.00001734,0.00045153
 ,0.00009277,-0.00015140,-0.00017102,0.00004717,0.00001031,-0.00016434,
 0.00000764,0.00001752,-0.00014423,-0.00062177,0.00158998,0.00004243,0.
 00000670,0.00003643,0.00016569,0.00007972,0.00022399,0.00008675,0.0002
 1838,0.00008128,-0.00123673,-0.00121300,-0.00421706,-0.00005690,0.0000
 9482,0.00041139,-0.00010425,-0.00016760,0.00000890,0.00019150,-0.00034
 319,0.00014795,-0.00000513,-0.00003422,-0.00003204,-0.00008628,-0.0004
 2670,-0.00021331,0.00011622,-0.00002135,0.00001577,-0.00000852,0.00001
 271,0.00000222,0.00001466,-0.00002994,-0.00006221,-0.00001394,-0.00000
 676,0.00000491,-0.00002737,0.00000004,-0.00004920,0.00000908,0.0000033
 9,0.00001408,-0.00000974,-0.00003359,0.00001392,0.00001210,0.00000811,
 0.00000357,0.00122891,0.00091262,0.00058765,0.00002988,0.00015998,0.00
 045418,-0.00020663,0.00024982,0.00070133,-0.00015007,-0.00003783,-0.00
 016427,-0.00137345,0.00252397,-0.00011561,0.00108978,-0.00062928,-0.00
 031056,0.00666518,-0.00179998,0.00479011,0.00054907,-0.00036308,0.0000
 2380,0.02851869,-0.08899091,-0.25541961,0.00190532,-0.00939841,-0.0208
 2091,-0.03707273,0.09974143,0.27261988,-0.20019393,-0.02136665,0.03660
 326,-0.00057266,-0.01798132,0.00588094,0.00853670,0.00197698,-0.000675
 95,-0.00179194,0.00470339,-0.00138756,-0.00474523,0.00363694,0.0003893
 8,-0.06010354,0.02280679,0.00972264,-0.00029461,0.00054141,-0.00011068
 ,0.00014974,-0.00013228,-0.00016878,-0.00008282,-0.00003079,0.00005123
 ,0.00000989,-0.00001756,-0.00000094,0.00008789,-0.00013444,0.00004203,
 -0.00008625,0.00008035,-0.00000986,0.00002828,-0.00029216,0.00010516,0
 .00021693,-0.00059394,-0.00091039,-0.00167010,-0.00094532,0.00063549,-
 0.00000471,-0.00001959,0.00000098,-0.00001771,-0.00002578,0.00001020,0
 .00000415,0.00001790,-0.00000563,0.00026344,-0.00005771,0.00016353,-0.
 00014843,-0.00033095,0.00019494,-0.00029747,-0.00054658,0.00021096,-0.
 06338089,0.02610898,0.01185237,0.01226688,-0.01282602,0.00412711,-0.00
 308226,-0.00257631,0.00001463,-0.00114294,-0.00061105,-0.00025622,0.00
 020548,-0.00023825,0.00000895,0.00052265,-0.00184201,0.00106823,0.0000
 2184,-0.00020646,-0.00000639,0.00002294,-0.00038275,-0.00051457,0.0000
 1516,0.00020414,0.00010415,0.00001315,-0.00001786,-0.00007105,0.000051
 67,-0.00002946,0.00012961,0.00066452,-0.00081706,0.00081956,0.00025173
 ,-0.00062375,0.00055991,-0.00022045,-0.00080757,0.00015281,0.00033644,
 0.00010736,0.00046336,0.00002814,-0.00025654,-0.00027118,0.00016561,-0
 .00044442,-0.00000744,0.00006351,0.00014383,0.00017720,0.00006200,-0.0
 0003722,0.00008455,-0.00000516,0.00005251,-0.00003359,0.00002016,-0.00
 003242,-0.00000728,0.00016182,0.00001623,0.00001246,0.00000630,-0.0000
 1513,-0.00001490,-0.00002674,0.00003041,0.00009730,0.00000945,-0.00000
 190,-0.00001781,-0.00042006,-0.00084747,0.00028624,0.00030259,0.000243
 28,-0.00039618,-0.00058179,0.00018190,-0.00154746,0.00004034,0.0001012
 2,0.00000910,-0.00032991,0.00046065,0.00066290,0.00019580,-0.00037864,
 0.00020629,0.00022862,-0.00008810,0.00025662,0.44490068,-0.05946075,-0
 .09629491,0.02324307,-0.04077531,-0.02294836,0.01623271,0.01194060,-0.
 00097295,0.00032907,-0.00273803,0.00274779,-0.00070921,0.00114786,-0.0
 0044864,0.00075709,-0.01529993,-0.00338851,0.00975761,-0.00018553,0.00
 173449,-0.00050432,0.00093665,-0.00046226,-0.00031104,-0.00059563,-0.0
 0040016,0.00028967,0.00002832,-0.00002538,-0.00000336,0.00061543,-0.00
 034892,0.00000716,-0.00033782,0.00057466,-0.00011939,-0.00031436,-0.00
 077760,0.00033959,0.00072315,0.00210602,-0.00236369,0.00003217,0.00023
 050,-0.00014790,-0.00002173,-0.00004971,0.00001168,-0.00004101,-0.0000
 2707,0.00001513,-0.00000226,0.00002810,-0.00000700,-0.00265334,-0.0008
 8265,0.00114221,-0.00000397,-0.00004331,0.00009918,-0.00179911,-0.0011
 0986,0.00070382,0.08235044,-0.03157123,0.00215655,0.00417721,-0.024511
 47,0.00674350,-0.00424611,-0.00073733,-0.00088254,0.00144322,-0.002524
 67,-0.00044483,0.00008452,0.00055250,-0.00010307,0.00043539,-0.0003245
 0,0.00027000,0.00030404,-0.00083618,-0.00029799,-0.00084128,-0.0005417
 0,-0.00060694,0.00030151,0.00032313,0.00004585,-0.00004226,0.00004920,
 -0.00009068,0.00001771,0.00001894,0.00028219,0.00060877,-0.00099837,0.
 00128729,-0.00018545,-0.00018062,0.00061285,0.00101771,0.00044320,0.00
 496169,-0.00017703,0.00048477,-0.00010332,0.00026771,-0.00024745,-0.00
 033245,-0.00002318,-0.00022565,-0.00112169,-0.00002046,0.00041614,0.00
 046905,0.00014188,-0.00013731,0.00022278,-0.00004155,0.00002142,-0.000
 05682,-0.00000050,0.00000214,-0.00004080,0.00026880,0.00013757,0.00035
 909,0.00005304,-0.00000392,-0.00004844,-0.00013632,0.00007529,0.000187
 19,-0.00003890,0.00002125,-0.00004089,0.00035652,-0.00136117,-0.000579
 59,0.00000236,0.00030641,0.00087161,0.00030912,0.00105173,-0.00092968,
 0.00006352,-0.00006597,0.00026670,0.00029237,-0.00045608,-0.00042975,-
 0.00060126,0.00029473,0.00022148,-0.00013138,0.00028381,-0.00013250,-0
 .08057682,0.57932526,0.04997921,0.01487679,-0.08229897,0.01324534,0.01
 124345,-0.00779500,-0.00411377,0.00232473,0.00771319,0.00103988,-0.002
 25217,-0.00068726,0.00107867,0.00005319,0.00214087,0.02255025,0.001091
 62,0.01031200,0.00014257,-0.00073781,0.00023764,-0.00052581,-0.0000722
 0,-0.00060637,0.00024828,0.00018169,-0.00002050,-0.00001666,0.00000594
 ,-0.00001939,-0.00022567,0.00017413,0.00005957,0.00014114,-0.00023071,
 0.00003087,0.00012112,0.00037073,-0.00008579,-0.00127357,-0.00205773,-
 0.00353561,0.00035761,0.00009810,-0.00020117,0.00000315,0.00001408,-0.
 00003016,0.00001737,0.00001360,-0.00001439,0.00000175,-0.00001149,0.00
 001167,0.00106519,0.00053454,0.00050999,0.00004895,0.00020259,0.000144
 45,0.00068775,0.00050425,-0.00037288,-0.00524995,0.01415996,0.02618544
 ,-0.00370586,0.00979734,-0.00097214,0.00154593,0.00183954,-0.00036206,
 -0.00058876,0.00051377,0.00089103,-0.00004386,-0.00011686,0.00004958,-
 0.00000330,0.00052853,-0.00050698,-0.00002700,0.00027870,0.00041887,-0
 .00020167,-0.00026950,0.00028185,-0.00001020,-0.00004519,0.00012195,0.
 00005049,0.00013933,0.00003970,-0.00002243,-0.00004108,-0.00009547,-0.
 00025098,0.00072098,-0.00053751,-0.00022939,0.00040909,-0.00016535,-0.
 00117692,-0.00052891,-0.00217260,0.00041455,-0.00011224,0.00045333,0.0
 0001064,0.00034365,0.00041235,-0.00004598,-0.00008692,0.00050512,0.000
 08965,-0.00012844,-0.00008823,-0.00006588,0.00003014,-0.00010985,0.000
 01260,0.00004196,-0.00000852,-0.00002591,-0.00000732,0.00000576,-0.000
 18301,0.00010206,-0.00002397,0.00008102,0.00005379,-0.00000138,0.00003
 126,-0.00002660,-0.00007526,-0.00001722,-0.00003082,0.00002761,0.00284
 082,-0.00309834,0.00022495,-0.00220315,0.00053659,-0.00002338,-0.00084
 453,0.00214160,-0.00552735,0.00023592,0.00026143,0.00043566,-0.0002577
 6,-0.00122380,-0.00107553,-0.00052260,0.00126403,-0.00112237,-0.000145
 38,0.00050122,-0.00067420,-0.05139201,-0.14775144,0.16119007,0.0108990
 3,-0.00553842,0.00169829,-0.01345758,-0.00814646,0.00658259,0.00563134
 ,0.00559385,-0.00285691,-0.00066235,-0.00162114,0.00083259,0.00429546,
 0.00673039,-0.00228816,-0.07316322,-0.07682338,0.04444151,0.00012690,0
 .00200150,-0.00070036,0.00142448,0.00054107,-0.00047669,-0.00043665,-0
 .00083502,0.00038384,-0.00004387,-0.00005665,0.00002829,0.00101314,-0.
 00020847,-0.00015220,-0.00032848,0.00090608,-0.00021807,-0.00058069,-0
 .00068081,0.00034519,0.00031147,0.00081589,-0.00047782,-0.00080326,0.0
 0005629,0.00000227,0.00002031,0.00001283,-0.00001187,-0.00000295,0.000
 01739,-0.00000492,0.00003069,-0.00000342,-0.00000757,-0.00191808,-0.00
 524971,0.00196779,-0.00099312,0.00196548,-0.00040200,-0.00241043,-0.00
 082165,0.00072893,-0.14398278,0.01316103,0.01204691,-0.10915490,-0.046
 83613,0.02356370,0.01685132,0.01036980,-0.00148168,-0.02660140,-0.0181
 0358,0.01207023,-0.00142730,0.00191714,0.00021759,-0.00079022,-0.00058
 194,0.00018644,-0.00040762,0.00141285,-0.00011065,0.00152918,0.0001224
 4,0.00058560,-0.00008391,-0.00045626,0.00016600,-0.00011551,0.00012210
 ,0.00009973,-0.00007399,0.00008337,-0.00032961,-0.00317761,0.00388543,
 -0.00302504,-0.00236639,0.00167284,0.00184702,-0.01052882,-0.01744883,
 -0.00694257,-0.00033277,-0.00084444,0.00046433,0.00048274,0.00179349,0
 .00149116,-0.00003882,0.00003275,-0.00004273,-0.00028663,-0.00064207,-
 0.00088553,-0.00026864,0.00016873,-0.00034064,0.00001789,-0.00022348,0
 .00014452,-0.00006755,0.00012268,0.00003554,-0.00066819,-0.00015801,-0
 .00081564,0.00008998,0.00010228,0.00002651,0.00033831,-0.00004005,-0.0
 0032028,-0.00001879,-0.00000515,0.00006477,0.00341132,0.00133907,-0.00
 352410,-0.00209014,-0.00041624,0.00232573,-0.00076142,-0.00015074,0.00
 074699,-0.00015389,-0.00039859,-0.00056506,0.00147411,0.00030161,0.001
 07299,-0.00067517,0.00080409,0.00066406,-0.00060970,0.00009011,-0.0003
 8242,-0.13065490,0.10337124,-0.02267189,0.48219007,-0.04918290,-0.0940
 6609,0.04593988,0.00637833,0.01411797,-0.00457042,-0.00924922,-0.00342
 406,0.00320520,0.00112290,-0.00369560,0.00127244,0.00283107,-0.0069652
 4,0.00239431,-0.03395080,0.00371059,0.01023162,-0.00004287,-0.00125321
 ,0.00037684,-0.00074817,-0.00015492,0.00024947,0.00027966,0.00041004,-
 0.00017173,0.00001230,0.00003515,-0.00001286,-0.00051172,0.00020918,0.
 00003393,0.00017866,-0.00044299,0.00011326,0.00024134,0.00039672,-0.00
 018831,0.00007855,-0.00025623,-0.00013024,0.00080096,0.00026389,-0.000
 40087,-0.00000826,0.00000423,-0.00000340,0.00001503,0.00000212,-0.0000
 0180,-0.00001247,-0.00001054,0.00000504,0.00056127,0.00263208,-0.00117
 692,0.00073110,-0.00075975,0.00011102,0.00140771,0.00040412,-0.0004491
 4,0.02454604,-0.10722695,0.00729320,-0.03913932,-0.14246523,0.03644104
 ,-0.00529665,-0.02693147,0.01103222,-0.00429295,0.01443285,0.00023451,
 -0.00024722,0.00001486,-0.00009238,0.00163465,-0.00086213,0.00051400,-
 0.00095109,0.00171941,-0.00010451,0.00274413,0.00070318,0.00056473,-0.
 00036929,-0.00054163,0.00018721,0.00009319,-0.00007658,0.00010115,0.00
 007724,-0.00000879,-0.00045589,0.00183288,-0.00050194,0.00100804,0.004
 18712,-0.00120654,-0.00202934,-0.01872549,-0.02719277,-0.01024538,0.00
 157492,0.00101849,0.00201193,-0.00039243,0.00004607,0.00081025,-0.0001
 5446,-0.00107494,-0.00039774,-0.00000144,-0.00080854,-0.00096025,-0.00
 019033,0.00033704,-0.00040662,0.00007117,0.00006100,0.00004399,0.00000
 650,0.00001854,0.00007188,-0.00065937,-0.00051466,-0.00136557,-0.00022
 481,-0.00003821,0.00013266,0.00040654,-0.00026070,-0.00043200,0.000106
 99,-0.00007355,0.00007063,-0.00108286,0.00511224,0.00094959,0.00097206
 ,-0.00113773,-0.00060153,0.00006457,-0.00284961,0.00276017,-0.00035675
 ,-0.00024214,-0.00103483,0.00038139,0.00117564,-0.00107239,0.00086983,
 -0.00111356,-0.00101272,0.00008795,-0.00055474,0.00047757,0.08471805,-
 0.39832518,0.09347646,0.02677677,0.77821079,0.01767773,0.03632894,-0.0
 0784239,0.00134200,-0.00239979,0.00411716,0.00252082,-0.00009404,-0.00
 001674,-0.00031689,0.00241411,0.00029469,-0.00191159,0.00094571,0.0018
 5071,0.02992363,0.02143534,-0.00530228,-0.00004934,-0.00014699,-0.0000
 2103,-0.00009018,-0.00007793,0.00010355,0.00004000,0.00009532,0.000021
 99,0.00000474,0.00000057,0.00000107,-0.00009595,-0.00002210,0.00001390
 ,0.00004057,-0.00008972,0.00004158,0.00007499,0.00005795,-0.00006771,-
 0.00019432,-0.00025830,-0.00027669,-0.00018290,-0.00025856,-0.00033059
 ,-0.00000420,-0.00000594,-0.00000899,-0.00000125,-0.00000216,0.0000080
 0,-0.00000298,0.00000182,-0.00000475,0.00019526,-0.00000404,-0.0005560
 3,-0.00007329,-0.00010977,0.00011643,0.00016730,0.00006335,-0.00012783
 ,0.00789674,0.00889899,-0.07138732,0.02157748,0.03619899,-0.08362341,0
 .00879166,0.01911533,-0.00852808,0.01543049,0.01098138,-0.00799298,0.0
 0053772,-0.00112554,0.00090402,-0.00106711,0.00040788,0.00054481,0.000
 78965,0.00024047,-0.00009592,-0.00007245,0.00077602,-0.00030774,0.0001
 4763,0.00013284,-0.00036552,-0.00016471,-0.00014563,0.00006556,0.00004
 125,0.00003932,0.00015023,-0.00185182,0.00077808,-0.00137818,0.0008823
 4,-0.00105655,-0.00073412,-0.01447182,-0.01881774,0.01098839,-0.000939
 30,-0.00091116,-0.00042939,0.00013187,-0.00094924,-0.00034580,-0.00230
 696,-0.00358452,-0.00450514,-0.00030365,0.00010490,0.00010037,0.000001
 27,-0.00010811,0.00011547,-0.00001410,-0.00021442,0.00006568,0.0000305
 4,0.00002423,-0.00000179,0.00018115,-0.00015815,0.00023337,-0.00015331
 ,-0.00007031,0.00000525,-0.00011591,-0.00001061,0.00012037,-0.00001932
 ,0.00003760,-0.00002390,-0.00476437,0.00359668,-0.00390927,0.00279722,
 -0.00066350,0.00006020,0.00125386,-0.00141904,-0.00075138,-0.00031305,
 -0.00044480,-0.00000298,0.00099802,-0.00101971,-0.00262753,-0.00046921
 ,-0.00009463,0.00020784,-0.00043098,0.00011107,0.00026978,-0.01729823,
 0.08627351,-0.10319388,-0.06579675,-0.19479742,0.28435895\\0.00000031,
 0.00000652,-0.00000837,0.,-0.00000168,-0.00000073,0.00000162,-0.000001
 12,0.00000136,0.00000001,0.00000120,-0.00000209,0.00000281,0.00000307,
 -0.00000029,-0.00000360,-0.00001007,0.00000384,-0.00000079,0.00000031,
 -0.00000085,0.00000214,0.00000185,0.00000092,-0.00000076,-0.00000127,-
 0.00000018,-0.00000076,0.00000044,0.00000057,-0.00000014,0.00000117,0.
 00000096,0.,0.00000135,0.00000189,-0.00000057,0.00000153,0.00000055,0.
 00000009,-0.00000077,-0.00000070,0.00000052,0.00000057,0.00000010,-0.0
 0000060,0.00000077,0.00000115,-0.00000029,0.00000139,0.00000186,0.,0.0
 0000127,0.00000145,-0.00000361,-0.00000059,-0.00000309,0.00000294,0.00
 000098,0.00000568,0.00000020,0.00000411,0.00000858,0.00001286,0.000009
 79,-0.00000344,-0.00000546,-0.00000186,-0.00001194,0.00000116,-0.00000
 851,0.00000313,-0.00000064,-0.00000489,-0.00000388,-0.00000068,0.00000
 094,0.00000015,0.00000046,-0.00000162,-0.00000066,-0.00000055,-0.00000
 067,0.00000709,-0.00000645,0.00000235,-0.00000095,0.00000315,-0.000000
 30,-0.00000413,-0.00000093,0.,-0.00000191,-0.00000045,0.00000064,-0.00
 000266,0.00000240,0.00000047,0.00000353,0.00000153,-0.00000058,0.00000
 081,0.00000115,-0.00000145,-0.00000151,0.00000139,-0.00000078,-0.00000
 100,0.00000064,-0.00000025,-0.00000045,0.00000215,0.00000160,-0.000000
 10,0.00000354,-0.00000490,0.00000068,-0.00000036,-0.00000050,0.0000002
 7,0.00000036,-0.00000064,0.00000100,-0.00000142,0.00000089,0.00000116,
 -0.00000022,-0.00000138,-0.00000004,-0.00000225,-0.00000127,-0.0000003
 5,-0.00000259,-0.00000118,-0.00000193,-0.00000165,-0.00000063,-0.00000
 111,0.00000798,-0.00000519,-0.00000775,-0.00000033,-0.00000039,0.00000
 568,-0.00000855,0.00000754,0.00000153,0.00000338,0.00000576,0.00000056
 ,0.00000470,-0.00001292,0.00001009,-0.00000024,0.00000247,-0.00000166,
 -0.00000277,0.00000465,-0.00000385,0.00000846,-0.00000362,0.00000170,-
 0.00001931,0.00000538,-0.00000067\\\@


 I take a simple view of life: keep your eyes open and get on with it.
 -- Laurence Olivier
 Job cpu time:      15 days  4 hours 40 minutes 41.8 seconds.
 Elapsed time:       1 days  6 hours 28 minutes 21.1 seconds.
 File lengths (MBytes):  RWF=   5981 Int=      0 D2E=      0 Chk=    144 Scr=      1
 Normal termination of Gaussian 16 at Sat Jul 13 03:59:15 2024.
