 Entering Gaussian System, Link 0=g16
 Initial command:
 /mnt/data/applications/G16/g16/l1.exe "/scratch/Gau-170560.inp" -scrdir="/scratch/"
 Entering Link 1 = /mnt/data/applications/G16/g16/l1.exe PID=    170561.
  
 Copyright (c) 1988,1990,1992,1993,1995,1998,2003,2009,2016,
            Gaussian, Inc.  All Rights Reserved.
  
 This is part of the Gaussian(R) 16 program.  It is based on
 the Gaussian(R) 09 system (copyright 2009, Gaussian, Inc.),
 the Gaussian(R) 03 system (copyright 2003, Gaussian, Inc.),
 the Gaussian(R) 98 system (copyright 1998, Gaussian, Inc.),
 the Gaussian(R) 94 system (copyright 1995, Gaussian, Inc.),
 the Gaussian 92(TM) system (copyright 1992, Gaussian, Inc.),
 the Gaussian 90(TM) system (copyright 1990, Gaussian, Inc.),
 the Gaussian 88(TM) system (copyright 1988, Gaussian, Inc.),
 the Gaussian 86(TM) system (copyright 1986, Carnegie Mellon
 University), and the Gaussian 82(TM) system (copyright 1983,
 Carnegie Mellon University). Gaussian is a federally registered
 trademark of Gaussian, Inc.
  
 This software contains proprietary and confidential information,
 including trade secrets, belonging to Gaussian, Inc.
  
 This software is provided under written license and may be
 used, copied, transmitted, or stored only in accord with that
 written license.
  
 The following legend is applicable only to US Government
 contracts under FAR:
  
                    RESTRICTED RIGHTS LEGEND
  
 Use, reproduction and disclosure by the US Government is
 subject to restrictions as set forth in subparagraphs (a)
 and (c) of the Commercial Computer Software - Restricted
 Rights clause in FAR 52.227-19.
  
 Gaussian, Inc.
 340 Quinnipiac St., Bldg. 40, Wallingford CT 06492
  
  
 ---------------------------------------------------------------
 Warning -- This program may not be used in any manner that
 competes with the business of Gaussian, Inc. or will provide
 assistance to any competitor of Gaussian, Inc.  The licensee
 of this program is prohibited from giving any competitor of
 Gaussian, Inc. access to this program.  By using this program,
 the user acknowledges that Gaussian, Inc. is engaged in the
 business of creating and licensing software in the field of
 computational chemistry and represents and warrants to the
 licensee that it is not a competitor of Gaussian, Inc. and that
 it will not use this program in any manner prohibited above.
 ---------------------------------------------------------------
  

 Cite this work as:
 Gaussian 16, Revision A.03,
 M. J. Frisch, G. W. Trucks, H. B. Schlegel, G. E. Scuseria, 
 M. A. Robb, J. R. Cheeseman, G. Scalmani, V. Barone, 
 G. A. Petersson, H. Nakatsuji, X. Li, M. Caricato, A. V. Marenich, 
 J. Bloino, B. G. Janesko, R. Gomperts, B. Mennucci, H. P. Hratchian, 
 J. V. Ortiz, A. F. Izmaylov, J. L. Sonnenberg, D. Williams-Young, 
 F. Ding, F. Lipparini, F. Egidi, J. Goings, B. Peng, A. Petrone, 
 T. Henderson, D. Ranasinghe, V. G. Zakrzewski, J. Gao, N. Rega, 
 G. Zheng, W. Liang, M. Hada, M. Ehara, K. Toyota, R. Fukuda, 
 J. Hasegawa, M. Ishida, T. Nakajima, Y. Honda, O. Kitao, H. Nakai, 
 T. Vreven, K. Throssell, J. A. Montgomery, Jr., J. E. Peralta, 
 F. Ogliaro, M. J. Bearpark, J. J. Heyd, E. N. Brothers, K. N. Kudin, 
 V. N. Staroverov, T. A. Keith, R. Kobayashi, J. Normand, 
 K. Raghavachari, A. P. Rendell, J. C. Burant, S. S. Iyengar, 
 J. Tomasi, M. Cossi, J. M. Millam, M. Klene, C. Adamo, R. Cammi, 
 J. W. Ochterski, R. L. Martin, K. Morokuma, O. Farkas, 
 J. B. Foresman, and D. J. Fox, Gaussian, Inc., Wallingford CT, 2016.
 
 ******************************************
 Gaussian 16:  AM64L-G16RevA.03 25-Dec-2016
                24-Jul-2024 
 ******************************************
 %nprocshared=24
 Will use up to   24 processors via shared memory.
 %mem=100GB
 %chk=TX-d-e.chk
 ----------------------------------------------------------------------
 #p opt freq b3lyp/gen pseudo=read EmpiricalDispersion=GD3BJ pop=(orbit
 als=20) optcyc=300 nosymm scrf=(pcm,solvent=acetonitrile)
 ----------------------------------------------------------------------
 1/6=300,18=20,19=15,26=3,38=1/1,3;
 2/9=110,12=2,15=1,17=6,18=5,40=1/2;
 3/5=7,11=2,16=1,17=8,25=1,30=1,70=2201,71=1,72=2,74=-5,124=41/1,2,3;
 4//1;
 5/5=2,38=5,53=2/2;
 6/7=2,8=2,9=2,10=2,28=1,96=20/1;
 7/30=1/1,2,3,16;
 1/6=300,18=20,19=15,26=3/3(2);
 2/9=110,15=1/2;
 99//99;
 2/9=110,15=1/2;
 3/5=7,6=1,11=2,16=1,17=8,25=1,30=1,70=2205,71=1,72=2,74=-5,82=7,124=41/1,2,3;
 4/5=5,16=3,69=1/1;
 5/5=2,38=5,53=2/2;
 7/30=1/1,2,3,16;
 1/6=300,18=20,19=15,26=3/3(-5);
 2/9=110,15=1/2;
 6/7=2,8=2,9=2,10=2,19=2,28=1,96=20/1;
 99/9=1/99;
 Leave Link    1 at Wed Jul 24 12:30:14 2024, MaxMem= 13421772800 cpu:               1.3 elap:               0.1
 (Enter /mnt/data/applications/G16/g16/l101.exe)
 -------------------
 Title Card Required
 -------------------
 Symbolic Z-matrix:
 Charge =  0 Multiplicity = 1
 C                    -1.40932   1.52295   0.42377 
 C                    -1.14047   2.85872   0.24224 
 C                     0.11979   3.23394  -0.25197 
 C                     1.07801   2.24251  -0.56304 
 C                     0.81156   0.87889  -0.37729 
 C                    -0.42641   0.56967   0.12248 
 C                     2.76976   4.33797  -1.14574 
 C                     1.70361   5.16979  -0.78041 
 C                     1.91886   6.55664  -0.76071 
 H                     1.08679   7.18164  -0.48114 
 C                     3.1416    7.10189  -1.08288 
 C                     4.19456   6.25831  -1.45032 
 C                     4.01177   4.89071  -1.48487 
 H                    -1.85909   3.62808   0.47503 
 H                     1.54688   0.12133  -0.60322 
 H                     3.28419   8.17231  -1.04934 
 H                     5.15952   6.67294  -1.70609 
 H                     4.82798   4.2387   -1.76393 
 C                     0.36026   4.68148  -0.41257 
 O                    -0.55147   5.48413  -0.21522 
 S                     2.66822   2.59313  -1.21263 
 O                    -0.93768  -0.65509   0.42815 
 C                    -3.03564  -1.59477   1.279 
 C                    -2.19191  -2.67467   1.99101 
 C                    -4.23883  -1.19438   2.15436 
 H                    -1.25632  -2.83156   1.45793 
 H                    -4.70385  -0.29907   1.74287 
 C                    -1.90798  -2.40645   3.4851 
 C                    -3.98259  -1.00275   3.66362 
 C                    -3.24288  -2.22173   4.21199 
 H                    -3.8485   -3.12177   4.08339 
 H                    -3.07159  -2.09957   5.28425 
 H                    -2.75195  -3.60977   1.93613 
 H                    -4.96836  -2.00097   2.05993 
 C                    -3.55354  -2.17279  -0.05887 
 H                    -4.16857  -1.4404   -0.58109 
 H                    -2.72597  -2.45639  -0.70814 
 H                    -4.15776  -3.05757   0.13751 
 C                    -1.13399  -3.58772   4.06911 
 H                    -0.92144  -3.42748   5.12661 
 H                    -1.72657  -4.49827   3.97526 
 H                    -0.18882  -3.72999   3.55025 
 C                    -5.33911  -0.83432   4.35202 
 H                    -5.98511  -1.68702   4.14115 
 H                    -5.21949  -0.75772   5.43328 
 H                    -5.84619   0.06689   4.00225 
 C                    -1.06256  -1.13578   3.59146 
 O                     0.16961  -1.17666   3.42981 
 N                    -1.69811   0.01795   3.80965 
 H                    -1.11925   0.86619   3.80382 
 C                    -3.12928   0.22825   3.99006 
 H                    -3.4252    1.06941   3.36394 
 H                    -3.30545   0.51221   5.03062 
 N                    -2.53494   0.85156   0.90752 
 C                    -2.21263  -0.39581   0.91202 
 C                     2.97739   1.13663   2.56087 
 H                     2.99364   1.0109    1.47471 
 H                     3.37795   0.22276   2.99782 
 C                     3.81822   2.34004   2.95009 
 H                     4.80344   2.25517   2.49225 
 H                     3.95505   2.35838   4.03335 
 C                     3.12449   3.6182    2.49148 
 H                     3.68945   4.50334   2.77671 
 H                     3.0657    3.61638   1.40234 
 C                     0.95585   2.4302    3.26687 
 N                     1.60062   1.27995   3.01943 
 H                     1.06362   0.41868   3.16119 
 O                    -0.22419   2.4416    3.65979 
 C                     1.72622   3.69521   3.07159 
 C                     1.18645   4.83124   3.43408 
 C                     0.69314   5.97904   3.78546 
 H                     0.87169   6.32634   4.80052 
 C                     0.77311   8.09942   2.43251 
 H                     1.63711   7.73433   1.87422 
 H                     1.16654   8.62205   3.30742 
 C                    -0.07458   6.90245   2.87398 
 H                    -0.96168   7.26263   3.40201 
 H                    -0.41385   6.35826   1.99429 
 C                    -0.01934   9.08379   1.56243 
 H                    -0.83096   9.50742   2.15942 
 H                    -0.48714   8.53907   0.74044 
 C                     0.8429    10.18814   1.00979 
 C                     1.18909   10.22398  -0.34059 
 C                     1.3491    11.18427   1.84795 
 C                     2.02434   11.2173  -0.84168 
 H                     0.7961    9.47034  -1.01029 
 C                     2.18209   12.17973   1.35329 
 H                     1.08596   11.17998   2.89819 
 C                     2.52642   12.19821   0.00492 
 H                     2.27931   11.22453  -1.89293 
 H                     2.56159   12.94319   2.0192 
 H                     3.17531   12.97232  -0.38121 
 
 Add virtual bond connecting atoms H67        and O48        Dist= 3.49D+00.
 Add virtual bond connecting atoms O68        and H50        Dist= 3.43D+00.
 ITRead=  0  0  0  0  0  0  0  0  0  0  0  0  0  0  0  0  0  0  0  0
 ITRead=  0  0  0  0  0  0  0  0  0  0  0  0  0  0  0  0  0  0  0  0
 ITRead=  0  0  0  0  0  0  0  0  0  0  0  0  0  0  0  0  0  0  0  0
 ITRead=  0  0  0  0  0  0  0  0  0  0  0  0  0  0  0  0  0  0  0  0
 ITRead=  0  0  0  0  0  0  0  0  0  0  0  0
 MicOpt= -1 -1 -1 -1 -1 -1 -1 -1 -1 -1 -1 -1 -1 -1 -1 -1 -1 -1 -1 -1
 MicOpt= -1 -1 -1 -1 -1 -1 -1 -1 -1 -1 -1 -1 -1 -1 -1 -1 -1 -1 -1 -1
 MicOpt= -1 -1 -1 -1 -1 -1 -1 -1 -1 -1 -1 -1 -1 -1 -1 -1 -1 -1 -1 -1
 MicOpt= -1 -1 -1 -1 -1 -1 -1 -1 -1 -1 -1 -1 -1 -1 -1 -1 -1 -1 -1 -1
 MicOpt= -1 -1 -1 -1 -1 -1 -1 -1 -1 -1 -1 -1
 NAtoms=     92 NQM=       92 NQMF=       0 NMMI=      0 NMMIF=      0
                NMic=       0 NMicF=      0.
                    Isotopes and Nuclear Properties:
 (Nuclear quadrupole moments (NQMom) in fm**2, nuclear magnetic moments (NMagM)
  in nuclear magnetons)

  Atom         1           2           3           4           5           6           7           8           9          10
 IAtWgt=          12          12          12          12          12          12          12          12          12           1
 AtmWgt=  12.0000000  12.0000000  12.0000000  12.0000000  12.0000000  12.0000000  12.0000000  12.0000000  12.0000000   1.0078250
 NucSpn=           0           0           0           0           0           0           0           0           0           1
 AtZEff=  -0.0000000  -0.0000000  -0.0000000  -0.0000000  -0.0000000  -0.0000000  -0.0000000  -0.0000000  -0.0000000  -0.0000000
 NQMom=    0.0000000   0.0000000   0.0000000   0.0000000   0.0000000   0.0000000   0.0000000   0.0000000   0.0000000   0.0000000
 NMagM=    0.0000000   0.0000000   0.0000000   0.0000000   0.0000000   0.0000000   0.0000000   0.0000000   0.0000000   2.7928460
 AtZNuc=   6.0000000   6.0000000   6.0000000   6.0000000   6.0000000   6.0000000   6.0000000   6.0000000   6.0000000   1.0000000

  Atom        11          12          13          14          15          16          17          18          19          20
 IAtWgt=          12          12          12           1           1           1           1           1          12          16
 AtmWgt=  12.0000000  12.0000000  12.0000000   1.0078250   1.0078250   1.0078250   1.0078250   1.0078250  12.0000000  15.9949146
 NucSpn=           0           0           0           1           1           1           1           1           0           0
 AtZEff=  -0.0000000  -0.0000000  -0.0000000  -0.0000000  -0.0000000  -0.0000000  -0.0000000  -0.0000000  -0.0000000  -0.0000000
 NQMom=    0.0000000   0.0000000   0.0000000   0.0000000   0.0000000   0.0000000   0.0000000   0.0000000   0.0000000   0.0000000
 NMagM=    0.0000000   0.0000000   0.0000000   2.7928460   2.7928460   2.7928460   2.7928460   2.7928460   0.0000000   0.0000000
 AtZNuc=   6.0000000   6.0000000   6.0000000   1.0000000   1.0000000   1.0000000   1.0000000   1.0000000   6.0000000   8.0000000

  Atom        21          22          23          24          25          26          27          28          29          30
 IAtWgt=          32          16          12          12          12           1           1          12          12          12
 AtmWgt=  31.9720718  15.9949146  12.0000000  12.0000000  12.0000000   1.0078250   1.0078250  12.0000000  12.0000000  12.0000000
 NucSpn=           0           0           0           0           0           1           1           0           0           0
 AtZEff=  -0.0000000  -0.0000000  -0.0000000  -0.0000000  -0.0000000  -0.0000000  -0.0000000  -0.0000000  -0.0000000  -0.0000000
 NQMom=    0.0000000   0.0000000   0.0000000   0.0000000   0.0000000   0.0000000   0.0000000   0.0000000   0.0000000   0.0000000
 NMagM=    0.0000000   0.0000000   0.0000000   0.0000000   0.0000000   2.7928460   2.7928460   0.0000000   0.0000000   0.0000000
 AtZNuc=  16.0000000   8.0000000   6.0000000   6.0000000   6.0000000   1.0000000   1.0000000   6.0000000   6.0000000   6.0000000

  Atom        31          32          33          34          35          36          37          38          39          40
 IAtWgt=           1           1           1           1          12           1           1           1          12           1
 AtmWgt=   1.0078250   1.0078250   1.0078250   1.0078250  12.0000000   1.0078250   1.0078250   1.0078250  12.0000000   1.0078250
 NucSpn=           1           1           1           1           0           1           1           1           0           1
 AtZEff=  -0.0000000  -0.0000000  -0.0000000  -0.0000000  -0.0000000  -0.0000000  -0.0000000  -0.0000000  -0.0000000  -0.0000000
 NQMom=    0.0000000   0.0000000   0.0000000   0.0000000   0.0000000   0.0000000   0.0000000   0.0000000   0.0000000   0.0000000
 NMagM=    2.7928460   2.7928460   2.7928460   2.7928460   0.0000000   2.7928460   2.7928460   2.7928460   0.0000000   2.7928460
 AtZNuc=   1.0000000   1.0000000   1.0000000   1.0000000   6.0000000   1.0000000   1.0000000   1.0000000   6.0000000   1.0000000

  Atom        41          42          43          44          45          46          47          48          49          50
 IAtWgt=           1           1          12           1           1           1          12          16          14           1
 AtmWgt=   1.0078250   1.0078250  12.0000000   1.0078250   1.0078250   1.0078250  12.0000000  15.9949146  14.0030740   1.0078250
 NucSpn=           1           1           0           1           1           1           0           0           2           1
 AtZEff=  -0.0000000  -0.0000000  -0.0000000  -0.0000000  -0.0000000  -0.0000000  -0.0000000  -0.0000000  -0.0000000  -0.0000000
 NQMom=    0.0000000   0.0000000   0.0000000   0.0000000   0.0000000   0.0000000   0.0000000   0.0000000   2.0440000   0.0000000
 NMagM=    2.7928460   2.7928460   0.0000000   2.7928460   2.7928460   2.7928460   0.0000000   0.0000000   0.4037610   2.7928460
 AtZNuc=   1.0000000   1.0000000   6.0000000   1.0000000   1.0000000   1.0000000   6.0000000   8.0000000   7.0000000   1.0000000

  Atom        51          52          53          54          55          56          57          58          59          60
 IAtWgt=          12           1           1          14          12          12           1           1          12           1
 AtmWgt=  12.0000000   1.0078250   1.0078250  14.0030740  12.0000000  12.0000000   1.0078250   1.0078250  12.0000000   1.0078250
 NucSpn=           0           1           1           2           0           0           1           1           0           1
 AtZEff=  -0.0000000  -0.0000000  -0.0000000  -0.0000000  -0.0000000  -0.0000000  -0.0000000  -0.0000000  -0.0000000  -0.0000000
 NQMom=    0.0000000   0.0000000   0.0000000   2.0440000   0.0000000   0.0000000   0.0000000   0.0000000   0.0000000   0.0000000
 NMagM=    0.0000000   2.7928460   2.7928460   0.4037610   0.0000000   0.0000000   2.7928460   2.7928460   0.0000000   2.7928460
 AtZNuc=   6.0000000   1.0000000   1.0000000   7.0000000   6.0000000   6.0000000   1.0000000   1.0000000   6.0000000   1.0000000

  Atom        61          62          63          64          65          66          67          68          69          70
 IAtWgt=           1          12           1           1          12          14           1          16          12          12
 AtmWgt=   1.0078250  12.0000000   1.0078250   1.0078250  12.0000000  14.0030740   1.0078250  15.9949146  12.0000000  12.0000000
 NucSpn=           1           0           1           1           0           2           1           0           0           0
 AtZEff=  -0.0000000  -0.0000000  -0.0000000  -0.0000000  -0.0000000  -0.0000000  -0.0000000  -0.0000000  -0.0000000  -0.0000000
 NQMom=    0.0000000   0.0000000   0.0000000   0.0000000   0.0000000   2.0440000   0.0000000   0.0000000   0.0000000   0.0000000
 NMagM=    2.7928460   0.0000000   2.7928460   2.7928460   0.0000000   0.4037610   2.7928460   0.0000000   0.0000000   0.0000000
 AtZNuc=   1.0000000   6.0000000   1.0000000   1.0000000   6.0000000   7.0000000   1.0000000   8.0000000   6.0000000   6.0000000

  Atom        71          72          73          74          75          76          77          78          79          80
 IAtWgt=          12           1          12           1           1          12           1           1          12           1
 AtmWgt=  12.0000000   1.0078250  12.0000000   1.0078250   1.0078250  12.0000000   1.0078250   1.0078250  12.0000000   1.0078250
 NucSpn=           0           1           0           1           1           0           1           1           0           1
 AtZEff=  -0.0000000  -0.0000000  -0.0000000  -0.0000000  -0.0000000  -0.0000000  -0.0000000  -0.0000000  -0.0000000  -0.0000000
 NQMom=    0.0000000   0.0000000   0.0000000   0.0000000   0.0000000   0.0000000   0.0000000   0.0000000   0.0000000   0.0000000
 NMagM=    0.0000000   2.7928460   0.0000000   2.7928460   2.7928460   0.0000000   2.7928460   2.7928460   0.0000000   2.7928460
 AtZNuc=   6.0000000   1.0000000   6.0000000   1.0000000   1.0000000   6.0000000   1.0000000   1.0000000   6.0000000   1.0000000

  Atom        81          82          83          84          85          86          87          88          89          90
 IAtWgt=           1          12          12          12          12           1          12           1          12           1
 AtmWgt=   1.0078250  12.0000000  12.0000000  12.0000000  12.0000000   1.0078250  12.0000000   1.0078250  12.0000000   1.0078250
 NucSpn=           1           0           0           0           0           1           0           1           0           1
 AtZEff=  -0.0000000  -0.0000000  -0.0000000  -0.0000000  -0.0000000  -0.0000000  -0.0000000  -0.0000000  -0.0000000  -0.0000000
 NQMom=    0.0000000   0.0000000   0.0000000   0.0000000   0.0000000   0.0000000   0.0000000   0.0000000   0.0000000   0.0000000
 NMagM=    2.7928460   0.0000000   0.0000000   0.0000000   0.0000000   2.7928460   0.0000000   2.7928460   0.0000000   2.7928460
 AtZNuc=   1.0000000   6.0000000   6.0000000   6.0000000   6.0000000   1.0000000   6.0000000   1.0000000   6.0000000   1.0000000

  Atom        91          92
 IAtWgt=           1           1
 AtmWgt=   1.0078250   1.0078250
 NucSpn=           1           1
 AtZEff=  -0.0000000  -0.0000000
 NQMom=    0.0000000   0.0000000
 NMagM=    2.7928460   2.7928460
 AtZNuc=   1.0000000   1.0000000
 Leave Link  101 at Wed Jul 24 12:30:14 2024, MaxMem= 13421772800 cpu:               8.4 elap:               0.4
 (Enter /mnt/data/applications/G16/g16/l103.exe)

 GradGradGradGradGradGradGradGradGradGradGradGradGradGradGradGradGradGrad
 Berny optimization.
 Initialization pass.
                           ----------------------------
                           !    Initial Parameters    !
                           ! (Angstroms and Degrees)  !
 --------------------------                            --------------------------
 ! Name  Definition              Value          Derivative Info.                !
 --------------------------------------------------------------------------------
 ! R1    R(1,2)                  1.3746         estimate D2E/DX2                !
 ! R2    R(1,6)                  1.402          estimate D2E/DX2                !
 ! R3    R(1,54)                 1.3971         estimate D2E/DX2                !
 ! R4    R(2,3)                  1.4047         estimate D2E/DX2                !
 ! R5    R(2,14)                 1.0782         estimate D2E/DX2                !
 ! R6    R(3,4)                  1.4135         estimate D2E/DX2                !
 ! R7    R(3,19)                 1.4761         estimate D2E/DX2                !
 ! R8    R(4,5)                  1.4018         estimate D2E/DX2                !
 ! R9    R(4,21)                 1.7532         estimate D2E/DX2                !
 ! R10   R(5,6)                  1.3704         estimate D2E/DX2                !
 ! R11   R(5,15)                 1.0797         estimate D2E/DX2                !
 ! R12   R(6,22)                 1.3619         estimate D2E/DX2                !
 ! R13   R(7,8)                  1.4007         estimate D2E/DX2                !
 ! R14   R(7,13)                 1.4011         estimate D2E/DX2                !
 ! R15   R(7,21)                 1.7491         estimate D2E/DX2                !
 ! R16   R(8,9)                  1.4036         estimate D2E/DX2                !
 ! R17   R(8,19)                 1.4759         estimate D2E/DX2                !
 ! R18   R(9,10)                 1.0776         estimate D2E/DX2                !
 ! R19   R(9,11)                 1.377          estimate D2E/DX2                !
 ! R20   R(11,12)                1.3983         estimate D2E/DX2                !
 ! R21   R(11,16)                1.0804         estimate D2E/DX2                !
 ! R22   R(12,13)                1.3802         estimate D2E/DX2                !
 ! R23   R(12,17)                1.081          estimate D2E/DX2                !
 ! R24   R(13,18)                1.0813         estimate D2E/DX2                !
 ! R25   R(19,20)                1.2306         estimate D2E/DX2                !
 ! R26   R(22,55)                1.3881         estimate D2E/DX2                !
 ! R27   R(23,24)                1.5444         estimate D2E/DX2                !
 ! R28   R(23,25)                1.5409         estimate D2E/DX2                !
 ! R29   R(23,35)                1.5467         estimate D2E/DX2                !
 ! R30   R(23,55)                1.4998         estimate D2E/DX2                !
 ! R31   R(24,26)                1.0882         estimate D2E/DX2                !
 ! R32   R(24,28)                1.5443         estimate D2E/DX2                !
 ! R33   R(24,33)                1.0914         estimate D2E/DX2                !
 ! R34   R(25,27)                1.0896         estimate D2E/DX2                !
 ! R35   R(25,29)                1.5428         estimate D2E/DX2                !
 ! R36   R(25,34)                1.0917         estimate D2E/DX2                !
 ! R37   R(28,30)                1.5312         estimate D2E/DX2                !
 ! R38   R(28,39)                1.5282         estimate D2E/DX2                !
 ! R39   R(28,47)                1.5299         estimate D2E/DX2                !
 ! R40   R(29,30)                1.5277         estimate D2E/DX2                !
 ! R41   R(29,43)                1.5305         estimate D2E/DX2                !
 ! R42   R(29,51)                1.533          estimate D2E/DX2                !
 ! R43   R(30,31)                1.0924         estimate D2E/DX2                !
 ! R44   R(30,32)                1.0927         estimate D2E/DX2                !
 ! R45   R(35,36)                1.0897         estimate D2E/DX2                !
 ! R46   R(35,37)                1.0894         estimate D2E/DX2                !
 ! R47   R(35,38)                1.0893         estimate D2E/DX2                !
 ! R48   R(39,40)                1.0905         estimate D2E/DX2                !
 ! R49   R(39,41)                1.0904         estimate D2E/DX2                !
 ! R50   R(39,42)                1.0876         estimate D2E/DX2                !
 ! R51   R(43,44)                1.0904         estimate D2E/DX2                !
 ! R52   R(43,45)                1.0905         estimate D2E/DX2                !
 ! R53   R(43,46)                1.0916         estimate D2E/DX2                !
 ! R54   R(47,48)                1.2434         estimate D2E/DX2                !
 ! R55   R(47,49)                1.3352         estimate D2E/DX2                !
 ! R56   R(48,67)                1.8484         estimate D2E/DX2                !
 ! R57   R(49,50)                1.0269         estimate D2E/DX2                !
 ! R58   R(49,51)                1.4578         estimate D2E/DX2                !
 ! R59   R(50,68)                1.8176         estimate D2E/DX2                !
 ! R60   R(51,52)                1.0896         estimate D2E/DX2                !
 ! R61   R(51,53)                1.0929         estimate D2E/DX2                !
 ! R62   R(54,55)                1.2883         estimate D2E/DX2                !
 ! R63   R(56,57)                1.0935         estimate D2E/DX2                !
 ! R64   R(56,58)                1.0893         estimate D2E/DX2                !
 ! R65   R(56,59)                1.5188         estimate D2E/DX2                !
 ! R66   R(56,66)                1.4582         estimate D2E/DX2                !
 ! R67   R(59,60)                1.0897         estimate D2E/DX2                !
 ! R68   R(59,61)                1.092          estimate D2E/DX2                !
 ! R69   R(59,62)                1.5249         estimate D2E/DX2                !
 ! R70   R(62,63)                1.0881         estimate D2E/DX2                !
 ! R71   R(62,64)                1.0907         estimate D2E/DX2                !
 ! R72   R(62,69)                1.5158         estimate D2E/DX2                !
 ! R73   R(65,66)                1.3417         estimate D2E/DX2                !
 ! R74   R(65,68)                1.2438         estimate D2E/DX2                !
 ! R75   R(65,69)                1.4939         estimate D2E/DX2                !
 ! R76   R(66,67)                1.0248         estimate D2E/DX2                !
 ! R77   R(69,70)                1.3089         estimate D2E/DX2                !
 ! R78   R(70,71)                1.2978         estimate D2E/DX2                !
 ! R79   R(71,72)                1.0876         estimate D2E/DX2                !
 ! R80   R(71,76)                1.5076         estimate D2E/DX2                !
 ! R81   R(73,74)                1.0915         estimate D2E/DX2                !
 ! R82   R(73,75)                1.0924         estimate D2E/DX2                !
 ! R83   R(73,76)                1.5317         estimate D2E/DX2                !
 ! R84   R(73,79)                1.5343         estimate D2E/DX2                !
 ! R85   R(76,77)                1.0934         estimate D2E/DX2                !
 ! R86   R(76,78)                1.0886         estimate D2E/DX2                !
 ! R87   R(79,80)                1.093          estimate D2E/DX2                !
 ! R88   R(79,81)                1.0914         estimate D2E/DX2                !
 ! R89   R(79,82)                1.5061         estimate D2E/DX2                !
 ! R90   R(82,83)                1.3945         estimate D2E/DX2                !
 ! R91   R(82,84)                1.3968         estimate D2E/DX2                !
 ! R92   R(83,85)                1.3912         estimate D2E/DX2                !
 ! R93   R(83,86)                1.0821         estimate D2E/DX2                !
 ! R94   R(84,87)                1.3891         estimate D2E/DX2                !
 ! R95   R(84,88)                1.0827         estimate D2E/DX2                !
 ! R96   R(85,89)                1.3896         estimate D2E/DX2                !
 ! R97   R(85,90)                1.0818         estimate D2E/DX2                !
 ! R98   R(87,89)                1.3918         estimate D2E/DX2                !
 ! R99   R(87,91)                1.0818         estimate D2E/DX2                !
 ! R100  R(89,92)                1.0814         estimate D2E/DX2                !
 ! A1    A(2,1,6)              119.6853         estimate D2E/DX2                !
 ! A2    A(2,1,54)             132.0908         estimate D2E/DX2                !
 ! A3    A(6,1,54)             108.2103         estimate D2E/DX2                !
 ! A4    A(1,2,3)              118.7829         estimate D2E/DX2                !
 ! A5    A(1,2,14)             122.3126         estimate D2E/DX2                !
 ! A6    A(3,2,14)             118.9017         estimate D2E/DX2                !
 ! A7    A(2,3,4)              119.8861         estimate D2E/DX2                !
 ! A8    A(2,3,19)             116.5102         estimate D2E/DX2                !
 ! A9    A(4,3,19)             123.6036         estimate D2E/DX2                !
 ! A10   A(3,4,5)              121.621          estimate D2E/DX2                !
 ! A11   A(3,4,21)             123.7917         estimate D2E/DX2                !
 ! A12   A(5,4,21)             114.5858         estimate D2E/DX2                !
 ! A13   A(4,5,6)              116.0753         estimate D2E/DX2                !
 ! A14   A(4,5,15)             121.6942         estimate D2E/DX2                !
 ! A15   A(6,5,15)             122.2252         estimate D2E/DX2                !
 ! A16   A(1,6,5)              123.9364         estimate D2E/DX2                !
 ! A17   A(1,6,22)             107.4601         estimate D2E/DX2                !
 ! A18   A(5,6,22)             128.6014         estimate D2E/DX2                !
 ! A19   A(8,7,13)             120.2357         estimate D2E/DX2                !
 ! A20   A(8,7,21)             123.9313         estimate D2E/DX2                !
 ! A21   A(13,7,21)            115.8329         estimate D2E/DX2                !
 ! A22   A(7,8,9)              118.2746         estimate D2E/DX2                !
 ! A23   A(7,8,19)             124.1455         estimate D2E/DX2                !
 ! A24   A(9,8,19)             117.5799         estimate D2E/DX2                !
 ! A25   A(8,9,10)             117.2787         estimate D2E/DX2                !
 ! A26   A(8,9,11)             121.6096         estimate D2E/DX2                !
 ! A27   A(10,9,11)            121.1116         estimate D2E/DX2                !
 ! A28   A(9,11,12)            119.4225         estimate D2E/DX2                !
 ! A29   A(9,11,16)            120.148          estimate D2E/DX2                !
 ! A30   A(12,11,16)           120.4295         estimate D2E/DX2                !
 ! A31   A(11,12,13)           120.3058         estimate D2E/DX2                !
 ! A32   A(11,12,17)           120.1964         estimate D2E/DX2                !
 ! A33   A(13,12,17)           119.4975         estimate D2E/DX2                !
 ! A34   A(7,13,12)            120.1486         estimate D2E/DX2                !
 ! A35   A(7,13,18)            119.5848         estimate D2E/DX2                !
 ! A36   A(12,13,18)           120.2638         estimate D2E/DX2                !
 ! A37   A(3,19,8)             119.9885         estimate D2E/DX2                !
 ! A38   A(3,19,20)            120.0962         estimate D2E/DX2                !
 ! A39   A(8,19,20)            119.9007         estimate D2E/DX2                !
 ! A40   A(4,21,7)             103.7678         estimate D2E/DX2                !
 ! A41   A(6,22,55)            104.7768         estimate D2E/DX2                !
 ! A42   A(24,23,25)           110.2668         estimate D2E/DX2                !
 ! A43   A(24,23,35)           108.6876         estimate D2E/DX2                !
 ! A44   A(24,23,55)           111.8389         estimate D2E/DX2                !
 ! A45   A(25,23,35)           109.0892         estimate D2E/DX2                !
 ! A46   A(25,23,55)           111.0859         estimate D2E/DX2                !
 ! A47   A(35,23,55)           105.7144         estimate D2E/DX2                !
 ! A48   A(23,24,26)           110.1624         estimate D2E/DX2                !
 ! A49   A(23,24,28)           115.1536         estimate D2E/DX2                !
 ! A50   A(23,24,33)           107.1933         estimate D2E/DX2                !
 ! A51   A(26,24,28)           109.9335         estimate D2E/DX2                !
 ! A52   A(26,24,33)           107.0396         estimate D2E/DX2                !
 ! A53   A(28,24,33)           106.9669         estimate D2E/DX2                !
 ! A54   A(23,25,27)           109.4048         estimate D2E/DX2                !
 ! A55   A(23,25,29)           117.2792         estimate D2E/DX2                !
 ! A56   A(23,25,34)           106.3018         estimate D2E/DX2                !
 ! A57   A(27,25,29)           109.7716         estimate D2E/DX2                !
 ! A58   A(27,25,34)           106.8132         estimate D2E/DX2                !
 ! A59   A(29,25,34)           106.7017         estimate D2E/DX2                !
 ! A60   A(24,28,30)           108.6607         estimate D2E/DX2                !
 ! A61   A(24,28,39)           109.1829         estimate D2E/DX2                !
 ! A62   A(24,28,47)           108.2469         estimate D2E/DX2                !
 ! A63   A(30,28,39)           110.6936         estimate D2E/DX2                !
 ! A64   A(30,28,47)           110.3993         estimate D2E/DX2                !
 ! A65   A(39,28,47)           109.6059         estimate D2E/DX2                !
 ! A66   A(25,29,30)           109.4187         estimate D2E/DX2                !
 ! A67   A(25,29,43)           107.8465         estimate D2E/DX2                !
 ! A68   A(25,29,51)           113.6097         estimate D2E/DX2                !
 ! A69   A(30,29,43)           110.8252         estimate D2E/DX2                !
 ! A70   A(30,29,51)           107.1445         estimate D2E/DX2                !
 ! A71   A(43,29,51)           108.0113         estimate D2E/DX2                !
 ! A72   A(28,30,29)           110.3644         estimate D2E/DX2                !
 ! A73   A(28,30,31)           109.15           estimate D2E/DX2                !
 ! A74   A(28,30,32)           110.0401         estimate D2E/DX2                !
 ! A75   A(29,30,31)           110.2865         estimate D2E/DX2                !
 ! A76   A(29,30,32)           109.8126         estimate D2E/DX2                !
 ! A77   A(31,30,32)           107.1292         estimate D2E/DX2                !
 ! A78   A(23,35,36)           110.6314         estimate D2E/DX2                !
 ! A79   A(23,35,37)           111.0043         estimate D2E/DX2                !
 ! A80   A(23,35,38)           109.4731         estimate D2E/DX2                !
 ! A81   A(36,35,37)           108.5479         estimate D2E/DX2                !
 ! A82   A(36,35,38)           108.6186         estimate D2E/DX2                !
 ! A83   A(37,35,38)           108.5039         estimate D2E/DX2                !
 ! A84   A(28,39,40)           110.8377         estimate D2E/DX2                !
 ! A85   A(28,39,41)           109.7146         estimate D2E/DX2                !
 ! A86   A(28,39,42)           111.0354         estimate D2E/DX2                !
 ! A87   A(40,39,41)           108.1848         estimate D2E/DX2                !
 ! A88   A(40,39,42)           108.2087         estimate D2E/DX2                !
 ! A89   A(41,39,42)           108.7828         estimate D2E/DX2                !
 ! A90   A(29,43,44)           110.6144         estimate D2E/DX2                !
 ! A91   A(29,43,45)           110.8837         estimate D2E/DX2                !
 ! A92   A(29,43,46)           111.0055         estimate D2E/DX2                !
 ! A93   A(44,43,45)           108.1597         estimate D2E/DX2                !
 ! A94   A(44,43,46)           107.9651         estimate D2E/DX2                !
 ! A95   A(45,43,46)           108.0975         estimate D2E/DX2                !
 ! A96   A(28,47,48)           120.7479         estimate D2E/DX2                !
 ! A97   A(28,47,49)           117.7762         estimate D2E/DX2                !
 ! A98   A(48,47,49)           121.4234         estimate D2E/DX2                !
 ! A99   A(47,48,67)           118.0232         estimate D2E/DX2                !
 ! A100  A(47,49,50)           116.3924         estimate D2E/DX2                !
 ! A101  A(47,49,51)           127.7498         estimate D2E/DX2                !
 ! A102  A(50,49,51)           115.7812         estimate D2E/DX2                !
 ! A103  A(29,51,49)           113.8463         estimate D2E/DX2                !
 ! A104  A(29,51,52)           110.2669         estimate D2E/DX2                !
 ! A105  A(29,51,53)           108.7634         estimate D2E/DX2                !
 ! A106  A(49,51,52)           107.8723         estimate D2E/DX2                !
 ! A107  A(49,51,53)           108.2744         estimate D2E/DX2                !
 ! A108  A(52,51,53)           107.6235         estimate D2E/DX2                !
 ! A109  A(1,54,55)            105.3626         estimate D2E/DX2                !
 ! A110  A(22,55,23)           116.102          estimate D2E/DX2                !
 ! A111  A(22,55,54)           114.1681         estimate D2E/DX2                !
 ! A112  A(23,55,54)           129.6085         estimate D2E/DX2                !
 ! A113  A(57,56,58)           107.2477         estimate D2E/DX2                !
 ! A114  A(57,56,59)           109.7202         estimate D2E/DX2                !
 ! A115  A(57,56,66)           109.7355         estimate D2E/DX2                !
 ! A116  A(58,56,59)           111.0005         estimate D2E/DX2                !
 ! A117  A(58,56,66)           107.6683         estimate D2E/DX2                !
 ! A118  A(59,56,66)           111.3611         estimate D2E/DX2                !
 ! A119  A(56,59,60)           109.339          estimate D2E/DX2                !
 ! A120  A(56,59,61)           109.6879         estimate D2E/DX2                !
 ! A121  A(56,59,62)           109.5855         estimate D2E/DX2                !
 ! A122  A(60,59,61)           107.7464         estimate D2E/DX2                !
 ! A123  A(60,59,62)           110.501          estimate D2E/DX2                !
 ! A124  A(61,59,62)           109.9538         estimate D2E/DX2                !
 ! A125  A(59,62,63)           111.5186         estimate D2E/DX2                !
 ! A126  A(59,62,64)           108.8711         estimate D2E/DX2                !
 ! A127  A(59,62,69)           110.3128         estimate D2E/DX2                !
 ! A128  A(63,62,64)           106.9235         estimate D2E/DX2                !
 ! A129  A(63,62,69)           109.7125         estimate D2E/DX2                !
 ! A130  A(64,62,69)           109.4213         estimate D2E/DX2                !
 ! A131  A(66,65,68)           121.4707         estimate D2E/DX2                !
 ! A132  A(66,65,69)           117.0029         estimate D2E/DX2                !
 ! A133  A(68,65,69)           121.5184         estimate D2E/DX2                !
 ! A134  A(56,66,65)           126.5843         estimate D2E/DX2                !
 ! A135  A(56,66,67)           117.1059         estimate D2E/DX2                !
 ! A136  A(65,66,67)           116.3076         estimate D2E/DX2                !
 ! A137  A(50,68,65)           118.9658         estimate D2E/DX2                !
 ! A138  A(62,69,65)           118.8615         estimate D2E/DX2                !
 ! A139  A(62,69,70)           122.0378         estimate D2E/DX2                !
 ! A140  A(65,69,70)           119.082          estimate D2E/DX2                !
 ! A141  A(70,71,72)           118.2109         estimate D2E/DX2                !
 ! A142  A(70,71,76)           124.8609         estimate D2E/DX2                !
 ! A143  A(72,71,76)           116.8899         estimate D2E/DX2                !
 ! A144  A(74,73,75)           106.5336         estimate D2E/DX2                !
 ! A145  A(74,73,76)           108.9111         estimate D2E/DX2                !
 ! A146  A(74,73,79)           109.4734         estimate D2E/DX2                !
 ! A147  A(75,73,76)           110.0191         estimate D2E/DX2                !
 ! A148  A(75,73,79)           109.4658         estimate D2E/DX2                !
 ! A149  A(76,73,79)           112.2698         estimate D2E/DX2                !
 ! A150  A(71,76,73)           111.7815         estimate D2E/DX2                !
 ! A151  A(71,76,77)           108.8417         estimate D2E/DX2                !
 ! A152  A(71,76,78)           109.942          estimate D2E/DX2                !
 ! A153  A(73,76,77)           109.316          estimate D2E/DX2                !
 ! A154  A(73,76,78)           109.2812         estimate D2E/DX2                !
 ! A155  A(77,76,78)           107.5817         estimate D2E/DX2                !
 ! A156  A(73,79,80)           108.8121         estimate D2E/DX2                !
 ! A157  A(73,79,81)           109.1629         estimate D2E/DX2                !
 ! A158  A(73,79,82)           112.5087         estimate D2E/DX2                !
 ! A159  A(80,79,81)           106.6509         estimate D2E/DX2                !
 ! A160  A(80,79,82)           109.9583         estimate D2E/DX2                !
 ! A161  A(81,79,82)           109.5715         estimate D2E/DX2                !
 ! A162  A(79,82,83)           121.083          estimate D2E/DX2                !
 ! A163  A(79,82,84)           120.6772         estimate D2E/DX2                !
 ! A164  A(83,82,84)           118.2146         estimate D2E/DX2                !
 ! A165  A(82,83,85)           121.0766         estimate D2E/DX2                !
 ! A166  A(82,83,86)           119.423          estimate D2E/DX2                !
 ! A167  A(85,83,86)           119.4991         estimate D2E/DX2                !
 ! A168  A(82,84,87)           120.9785         estimate D2E/DX2                !
 ! A169  A(82,84,88)           119.4169         estimate D2E/DX2                !
 ! A170  A(87,84,88)           119.6046         estimate D2E/DX2                !
 ! A171  A(83,85,89)           120.0994         estimate D2E/DX2                !
 ! A172  A(83,85,90)           119.7569         estimate D2E/DX2                !
 ! A173  A(89,85,90)           120.1436         estimate D2E/DX2                !
 ! A174  A(84,87,89)           120.1907         estimate D2E/DX2                !
 ! A175  A(84,87,91)           119.7959         estimate D2E/DX2                !
 ! A176  A(89,87,91)           120.0133         estimate D2E/DX2                !
 ! A177  A(85,89,87)           119.4378         estimate D2E/DX2                !
 ! A178  A(85,89,92)           120.3037         estimate D2E/DX2                !
 ! A179  A(87,89,92)           120.2578         estimate D2E/DX2                !
 ! A180  L(49,50,68,1,-1)      175.0267         estimate D2E/DX2                !
 ! A181  L(48,67,66,1,-1)      182.1421         estimate D2E/DX2                !
 ! A182  L(69,70,71,8,-1)      179.3288         estimate D2E/DX2                !
 ! A183  L(49,50,68,1,-2)      176.053          estimate D2E/DX2                !
 ! A184  L(48,67,66,1,-2)      181.6127         estimate D2E/DX2                !
 ! A185  L(69,70,71,8,-2)      182.0621         estimate D2E/DX2                !
 ! D1    D(6,1,2,3)              0.3801         estimate D2E/DX2                !
 ! D2    D(6,1,2,14)          -178.9971         estimate D2E/DX2                !
 ! D3    D(54,1,2,3)           178.8652         estimate D2E/DX2                !
 ! D4    D(54,1,2,14)           -0.5121         estimate D2E/DX2                !
 ! D5    D(2,1,6,5)             -1.2542         estimate D2E/DX2                !
 ! D6    D(2,1,6,22)           178.2588         estimate D2E/DX2                !
 ! D7    D(54,1,6,5)           179.9292         estimate D2E/DX2                !
 ! D8    D(54,1,6,22)           -0.5578         estimate D2E/DX2                !
 ! D9    D(2,1,54,55)         -177.3361         estimate D2E/DX2                !
 ! D10   D(6,1,54,55)            1.2784         estimate D2E/DX2                !
 ! D11   D(1,2,3,4)              0.5545         estimate D2E/DX2                !
 ! D12   D(1,2,3,19)          -179.3065         estimate D2E/DX2                !
 ! D13   D(14,2,3,4)           179.9533         estimate D2E/DX2                !
 ! D14   D(14,2,3,19)            0.0923         estimate D2E/DX2                !
 ! D15   D(2,3,4,5)             -0.7258         estimate D2E/DX2                !
 ! D16   D(2,3,4,21)           178.8156         estimate D2E/DX2                !
 ! D17   D(19,3,4,5)           179.1248         estimate D2E/DX2                !
 ! D18   D(19,3,4,21)           -1.3337         estimate D2E/DX2                !
 ! D19   D(2,3,19,8)           173.1475         estimate D2E/DX2                !
 ! D20   D(2,3,19,20)           -5.4609         estimate D2E/DX2                !
 ! D21   D(4,3,19,8)            -6.7078         estimate D2E/DX2                !
 ! D22   D(4,3,19,20)          174.6838         estimate D2E/DX2                !
 ! D23   D(3,4,5,6)             -0.0703         estimate D2E/DX2                !
 ! D24   D(3,4,5,15)          -179.2472         estimate D2E/DX2                !
 ! D25   D(21,4,5,6)          -179.6512         estimate D2E/DX2                !
 ! D26   D(21,4,5,15)            1.172          estimate D2E/DX2                !
 ! D27   D(3,4,21,7)             7.0164         estimate D2E/DX2                !
 ! D28   D(5,4,21,7)          -173.413          estimate D2E/DX2                !
 ! D29   D(4,5,6,1)              1.0662         estimate D2E/DX2                !
 ! D30   D(4,5,6,22)          -178.3394         estimate D2E/DX2                !
 ! D31   D(15,5,6,1)          -179.7618         estimate D2E/DX2                !
 ! D32   D(15,5,6,22)            0.8327         estimate D2E/DX2                !
 ! D33   D(1,6,22,55)           -0.3355         estimate D2E/DX2                !
 ! D34   D(5,6,22,55)          179.1475         estimate D2E/DX2                !
 ! D35   D(13,7,8,9)            -0.2264         estimate D2E/DX2                !
 ! D36   D(13,7,8,19)          179.7675         estimate D2E/DX2                !
 ! D37   D(21,7,8,9)           179.6989         estimate D2E/DX2                !
 ! D38   D(21,7,8,19)           -0.3072         estimate D2E/DX2                !
 ! D39   D(8,7,13,12)            0.5217         estimate D2E/DX2                !
 ! D40   D(8,7,13,18)          179.9131         estimate D2E/DX2                !
 ! D41   D(21,7,13,12)        -179.4094         estimate D2E/DX2                !
 ! D42   D(21,7,13,18)          -0.018          estimate D2E/DX2                !
 ! D43   D(8,7,21,4)            -6.2372         estimate D2E/DX2                !
 ! D44   D(13,7,21,4)          173.6911         estimate D2E/DX2                !
 ! D45   D(7,8,9,10)           179.7647         estimate D2E/DX2                !
 ! D46   D(7,8,9,11)            -0.3135         estimate D2E/DX2                !
 ! D47   D(19,8,9,10)           -0.2297         estimate D2E/DX2                !
 ! D48   D(19,8,9,11)          179.6921         estimate D2E/DX2                !
 ! D49   D(7,8,19,3)             7.6002         estimate D2E/DX2                !
 ! D50   D(7,8,19,20)         -173.7886         estimate D2E/DX2                !
 ! D51   D(9,8,19,3)          -172.4058         estimate D2E/DX2                !
 ! D52   D(9,8,19,20)            6.2053         estimate D2E/DX2                !
 ! D53   D(8,9,11,12)            0.5537         estimate D2E/DX2                !
 ! D54   D(8,9,11,16)         -179.3235         estimate D2E/DX2                !
 ! D55   D(10,9,11,12)        -179.5275         estimate D2E/DX2                !
 ! D56   D(10,9,11,16)           0.5953         estimate D2E/DX2                !
 ! D57   D(9,11,12,13)          -0.2509         estimate D2E/DX2                !
 ! D58   D(9,11,12,17)         179.9741         estimate D2E/DX2                !
 ! D59   D(16,11,12,13)        179.626          estimate D2E/DX2                !
 ! D60   D(16,11,12,17)         -0.149          estimate D2E/DX2                !
 ! D61   D(11,12,13,7)          -0.2817         estimate D2E/DX2                !
 ! D62   D(11,12,13,18)       -179.6689         estimate D2E/DX2                !
 ! D63   D(17,12,13,7)         179.4949         estimate D2E/DX2                !
 ! D64   D(17,12,13,18)          0.1077         estimate D2E/DX2                !
 ! D65   D(6,22,55,23)         177.6277         estimate D2E/DX2                !
 ! D66   D(6,22,55,54)           1.2441         estimate D2E/DX2                !
 ! D67   D(25,23,24,26)       -170.1962         estimate D2E/DX2                !
 ! D68   D(25,23,24,28)        -45.1907         estimate D2E/DX2                !
 ! D69   D(25,23,24,33)         73.6757         estimate D2E/DX2                !
 ! D70   D(35,23,24,26)         70.271          estimate D2E/DX2                !
 ! D71   D(35,23,24,28)       -164.7235         estimate D2E/DX2                !
 ! D72   D(35,23,24,33)        -45.8571         estimate D2E/DX2                !
 ! D73   D(55,23,24,26)        -46.0613         estimate D2E/DX2                !
 ! D74   D(55,23,24,28)         78.9442         estimate D2E/DX2                !
 ! D75   D(55,23,24,33)       -162.1893         estimate D2E/DX2                !
 ! D76   D(24,23,25,27)        168.4214         estimate D2E/DX2                !
 ! D77   D(24,23,25,29)         42.6064         estimate D2E/DX2                !
 ! D78   D(24,23,25,34)        -76.5837         estimate D2E/DX2                !
 ! D79   D(35,23,25,27)        -72.2895         estimate D2E/DX2                !
 ! D80   D(35,23,25,29)        161.8954         estimate D2E/DX2                !
 ! D81   D(35,23,25,34)         42.7053         estimate D2E/DX2                !
 ! D82   D(55,23,25,27)         43.8533         estimate D2E/DX2                !
 ! D83   D(55,23,25,29)        -81.9617         estimate D2E/DX2                !
 ! D84   D(55,23,25,34)        158.8482         estimate D2E/DX2                !
 ! D85   D(24,23,35,36)        179.0493         estimate D2E/DX2                !
 ! D86   D(24,23,35,37)        -60.377          estimate D2E/DX2                !
 ! D87   D(24,23,35,38)         59.3815         estimate D2E/DX2                !
 ! D88   D(25,23,35,36)         58.784          estimate D2E/DX2                !
 ! D89   D(25,23,35,37)        179.3577         estimate D2E/DX2                !
 ! D90   D(25,23,35,38)        -60.8838         estimate D2E/DX2                !
 ! D91   D(55,23,35,36)        -60.7443         estimate D2E/DX2                !
 ! D92   D(55,23,35,37)         59.8294         estimate D2E/DX2                !
 ! D93   D(55,23,35,38)        179.5879         estimate D2E/DX2                !
 ! D94   D(24,23,55,22)         40.339          estimate D2E/DX2                !
 ! D95   D(24,23,55,54)       -143.9449         estimate D2E/DX2                !
 ! D96   D(25,23,55,22)        164.014          estimate D2E/DX2                !
 ! D97   D(25,23,55,54)        -20.2698         estimate D2E/DX2                !
 ! D98   D(35,23,55,22)        -77.7823         estimate D2E/DX2                !
 ! D99   D(35,23,55,54)         97.9338         estimate D2E/DX2                !
 ! D100  D(23,24,28,30)         56.1423         estimate D2E/DX2                !
 ! D101  D(23,24,28,39)        176.966          estimate D2E/DX2                !
 ! D102  D(23,24,28,47)        -63.7731         estimate D2E/DX2                !
 ! D103  D(26,24,28,30)       -178.7332         estimate D2E/DX2                !
 ! D104  D(26,24,28,39)        -57.9095         estimate D2E/DX2                !
 ! D105  D(26,24,28,47)         61.3514         estimate D2E/DX2                !
 ! D106  D(33,24,28,30)        -62.85           estimate D2E/DX2                !
 ! D107  D(33,24,28,39)         57.9737         estimate D2E/DX2                !
 ! D108  D(33,24,28,47)        177.2345         estimate D2E/DX2                !
 ! D109  D(23,25,29,30)        -50.4368         estimate D2E/DX2                !
 ! D110  D(23,25,29,43)       -171.0684         estimate D2E/DX2                !
 ! D111  D(23,25,29,51)         69.2462         estimate D2E/DX2                !
 ! D112  D(27,25,29,30)       -176.0703         estimate D2E/DX2                !
 ! D113  D(27,25,29,43)         63.2981         estimate D2E/DX2                !
 ! D114  D(27,25,29,51)        -56.3873         estimate D2E/DX2                !
 ! D115  D(34,25,29,30)         68.5404         estimate D2E/DX2                !
 ! D116  D(34,25,29,43)        -52.0912         estimate D2E/DX2                !
 ! D117  D(34,25,29,51)       -171.7766         estimate D2E/DX2                !
 ! D118  D(24,28,30,29)        -62.5772         estimate D2E/DX2                !
 ! D119  D(24,28,30,31)         58.7815         estimate D2E/DX2                !
 ! D120  D(24,28,30,32)        176.0745         estimate D2E/DX2                !
 ! D121  D(39,28,30,29)        177.5349         estimate D2E/DX2                !
 ! D122  D(39,28,30,31)        -61.1065         estimate D2E/DX2                !
 ! D123  D(39,28,30,32)         56.1866         estimate D2E/DX2                !
 ! D124  D(47,28,30,29)         55.99           estimate D2E/DX2                !
 ! D125  D(47,28,30,31)        177.3487         estimate D2E/DX2                !
 ! D126  D(47,28,30,32)        -65.3582         estimate D2E/DX2                !
 ! D127  D(24,28,39,40)       -179.822          estimate D2E/DX2                !
 ! D128  D(24,28,39,41)        -60.4086         estimate D2E/DX2                !
 ! D129  D(24,28,39,42)         59.8735         estimate D2E/DX2                !
 ! D130  D(30,28,39,40)        -60.2475         estimate D2E/DX2                !
 ! D131  D(30,28,39,41)         59.1659         estimate D2E/DX2                !
 ! D132  D(30,28,39,42)        179.448          estimate D2E/DX2                !
 ! D133  D(47,28,39,40)         61.7635         estimate D2E/DX2                !
 ! D134  D(47,28,39,41)       -178.8231         estimate D2E/DX2                !
 ! D135  D(47,28,39,42)        -58.541          estimate D2E/DX2                !
 ! D136  D(24,28,47,48)        -82.2992         estimate D2E/DX2                !
 ! D137  D(24,28,47,49)         95.1042         estimate D2E/DX2                !
 ! D138  D(30,28,47,48)        158.8812         estimate D2E/DX2                !
 ! D139  D(30,28,47,49)        -23.7153         estimate D2E/DX2                !
 ! D140  D(39,28,47,48)         36.6943         estimate D2E/DX2                !
 ! D141  D(39,28,47,49)       -145.9022         estimate D2E/DX2                !
 ! D142  D(25,29,30,28)         59.3839         estimate D2E/DX2                !
 ! D143  D(25,29,30,31)        -61.2974         estimate D2E/DX2                !
 ! D144  D(25,29,30,32)       -179.1328         estimate D2E/DX2                !
 ! D145  D(43,29,30,28)        178.184          estimate D2E/DX2                !
 ! D146  D(43,29,30,31)         57.5027         estimate D2E/DX2                !
 ! D147  D(43,29,30,32)        -60.3327         estimate D2E/DX2                !
 ! D148  D(51,29,30,28)        -64.2002         estimate D2E/DX2                !
 ! D149  D(51,29,30,31)        175.1186         estimate D2E/DX2                !
 ! D150  D(51,29,30,32)         57.2831         estimate D2E/DX2                !
 ! D151  D(25,29,43,44)         56.4314         estimate D2E/DX2                !
 ! D152  D(25,29,43,45)        176.4261         estimate D2E/DX2                !
 ! D153  D(25,29,43,46)        -63.3989         estimate D2E/DX2                !
 ! D154  D(30,29,43,44)        -63.3144         estimate D2E/DX2                !
 ! D155  D(30,29,43,45)         56.6803         estimate D2E/DX2                !
 ! D156  D(30,29,43,46)        176.8553         estimate D2E/DX2                !
 ! D157  D(51,29,43,44)        179.6006         estimate D2E/DX2                !
 ! D158  D(51,29,43,45)        -60.4047         estimate D2E/DX2                !
 ! D159  D(51,29,43,46)         59.7704         estimate D2E/DX2                !
 ! D160  D(25,29,51,49)        -80.5333         estimate D2E/DX2                !
 ! D161  D(25,29,51,52)         40.8595         estimate D2E/DX2                !
 ! D162  D(25,29,51,53)        158.6537         estimate D2E/DX2                !
 ! D163  D(30,29,51,49)         40.4343         estimate D2E/DX2                !
 ! D164  D(30,29,51,52)        161.827          estimate D2E/DX2                !
 ! D165  D(30,29,51,53)        -80.3787         estimate D2E/DX2                !
 ! D166  D(43,29,51,49)        159.8751         estimate D2E/DX2                !
 ! D167  D(43,29,51,52)        -78.7322         estimate D2E/DX2                !
 ! D168  D(43,29,51,53)         39.0621         estimate D2E/DX2                !
 ! D169  D(28,47,48,67)        165.2936         estimate D2E/DX2                !
 ! D170  D(49,47,48,67)        -12.0141         estimate D2E/DX2                !
 ! D171  D(28,47,49,50)       -175.3512         estimate D2E/DX2                !
 ! D172  D(28,47,49,51)          1.3064         estimate D2E/DX2                !
 ! D173  D(48,47,49,50)          2.0338         estimate D2E/DX2                !
 ! D174  D(48,47,49,51)        178.6913         estimate D2E/DX2                !
 ! D175  D(47,48,66,56)       -167.5789         estimate D2E/DX2                !
 ! D176  D(47,48,66,65)         12.6574         estimate D2E/DX2                !
 ! D177  D(47,49,68,65)          7.1098         estimate D2E/DX2                !
 ! D178  D(51,49,68,65)       -166.8714         estimate D2E/DX2                !
 ! D179  D(47,49,51,29)        -10.4289         estimate D2E/DX2                !
 ! D180  D(47,49,51,52)       -133.1438         estimate D2E/DX2                !
 ! D181  D(47,49,51,53)        110.6572         estimate D2E/DX2                !
 ! D182  D(50,49,51,29)        166.246          estimate D2E/DX2                !
 ! D183  D(50,49,51,52)         43.5311         estimate D2E/DX2                !
 ! D184  D(50,49,51,53)        -72.6679         estimate D2E/DX2                !
 ! D185  D(1,54,55,22)          -1.5739         estimate D2E/DX2                !
 ! D186  D(1,54,55,23)        -177.3575         estimate D2E/DX2                !
 ! D187  D(57,56,59,60)        -51.6233         estimate D2E/DX2                !
 ! D188  D(57,56,59,61)       -169.571          estimate D2E/DX2                !
 ! D189  D(57,56,59,62)         69.6306         estimate D2E/DX2                !
 ! D190  D(58,56,59,60)         66.7352         estimate D2E/DX2                !
 ! D191  D(58,56,59,61)        -51.2126         estimate D2E/DX2                !
 ! D192  D(58,56,59,62)       -172.011          estimate D2E/DX2                !
 ! D193  D(66,56,59,60)       -173.3165         estimate D2E/DX2                !
 ! D194  D(66,56,59,61)         68.7357         estimate D2E/DX2                !
 ! D195  D(66,56,59,62)        -52.0627         estimate D2E/DX2                !
 ! D196  D(57,56,66,65)        -96.6591         estimate D2E/DX2                !
 ! D197  D(57,56,66,67)         82.7794         estimate D2E/DX2                !
 ! D198  D(58,56,66,65)        146.9256         estimate D2E/DX2                !
 ! D199  D(58,56,66,67)        -33.6359         estimate D2E/DX2                !
 ! D200  D(59,56,66,65)         25.0253         estimate D2E/DX2                !
 ! D201  D(59,56,66,67)       -155.5362         estimate D2E/DX2                !
 ! D202  D(56,59,62,63)        178.5959         estimate D2E/DX2                !
 ! D203  D(56,59,62,64)        -63.6647         estimate D2E/DX2                !
 ! D204  D(56,59,62,69)         56.4168         estimate D2E/DX2                !
 ! D205  D(60,59,62,63)        -60.8538         estimate D2E/DX2                !
 ! D206  D(60,59,62,64)         56.8856         estimate D2E/DX2                !
 ! D207  D(60,59,62,69)        176.9671         estimate D2E/DX2                !
 ! D208  D(61,59,62,63)         57.9587         estimate D2E/DX2                !
 ! D209  D(61,59,62,64)        175.6982         estimate D2E/DX2                !
 ! D210  D(61,59,62,69)        -64.2204         estimate D2E/DX2                !
 ! D211  D(59,62,69,65)        -33.8587         estimate D2E/DX2                !
 ! D212  D(59,62,69,70)        144.5538         estimate D2E/DX2                !
 ! D213  D(63,62,69,65)       -157.0958         estimate D2E/DX2                !
 ! D214  D(63,62,69,70)         21.3166         estimate D2E/DX2                !
 ! D215  D(64,62,69,65)         85.8908         estimate D2E/DX2                !
 ! D216  D(64,62,69,70)        -95.6968         estimate D2E/DX2                !
 ! D217  D(68,65,66,56)       -179.8334         estimate D2E/DX2                !
 ! D218  D(68,65,66,67)          0.7241         estimate D2E/DX2                !
 ! D219  D(69,65,66,56)         -0.846          estimate D2E/DX2                !
 ! D220  D(69,65,66,67)        179.7116         estimate D2E/DX2                !
 ! D221  D(66,65,68,50)         -3.7159         estimate D2E/DX2                !
 ! D222  D(69,65,68,50)        177.3424         estimate D2E/DX2                !
 ! D223  D(66,65,69,62)          5.5785         estimate D2E/DX2                !
 ! D224  D(66,65,69,70)       -172.8816         estimate D2E/DX2                !
 ! D225  D(68,65,69,62)       -175.4346         estimate D2E/DX2                !
 ! D226  D(68,65,69,70)          6.1053         estimate D2E/DX2                !
 ! D227  D(62,69,71,72)        -88.4642         estimate D2E/DX2                !
 ! D228  D(62,69,71,76)         87.9126         estimate D2E/DX2                !
 ! D229  D(65,69,71,72)         89.7762         estimate D2E/DX2                !
 ! D230  D(65,69,71,76)        -93.8471         estimate D2E/DX2                !
 ! D231  D(70,71,76,73)       -104.4885         estimate D2E/DX2                !
 ! D232  D(70,71,76,77)        134.6652         estimate D2E/DX2                !
 ! D233  D(70,71,76,78)         17.0626         estimate D2E/DX2                !
 ! D234  D(72,71,76,73)         73.2111         estimate D2E/DX2                !
 ! D235  D(72,71,76,77)        -47.6352         estimate D2E/DX2                !
 ! D236  D(72,71,76,78)       -165.2379         estimate D2E/DX2                !
 ! D237  D(74,73,76,71)         61.5146         estimate D2E/DX2                !
 ! D238  D(74,73,76,77)       -177.9153         estimate D2E/DX2                !
 ! D239  D(74,73,76,78)        -60.4171         estimate D2E/DX2                !
 ! D240  D(75,73,76,71)        -54.9075         estimate D2E/DX2                !
 ! D241  D(75,73,76,77)         65.6626         estimate D2E/DX2                !
 ! D242  D(75,73,76,78)       -176.8392         estimate D2E/DX2                !
 ! D243  D(79,73,76,71)       -177.0799         estimate D2E/DX2                !
 ! D244  D(79,73,76,77)        -56.5098         estimate D2E/DX2                !
 ! D245  D(79,73,76,78)         60.9885         estimate D2E/DX2                !
 ! D246  D(74,73,79,80)       -175.1871         estimate D2E/DX2                !
 ! D247  D(74,73,79,81)         68.7823         estimate D2E/DX2                !
 ! D248  D(74,73,79,82)        -53.0801         estimate D2E/DX2                !
 ! D249  D(75,73,79,80)        -58.756          estimate D2E/DX2                !
 ! D250  D(75,73,79,81)       -174.7866         estimate D2E/DX2                !
 ! D251  D(75,73,79,82)         63.351          estimate D2E/DX2                !
 ! D252  D(76,73,79,80)         63.7301         estimate D2E/DX2                !
 ! D253  D(76,73,79,81)        -52.3005         estimate D2E/DX2                !
 ! D254  D(76,73,79,82)       -174.1629         estimate D2E/DX2                !
 ! D255  D(73,79,82,83)        107.641          estimate D2E/DX2                !
 ! D256  D(73,79,82,84)        -70.499          estimate D2E/DX2                !
 ! D257  D(80,79,82,83)       -130.9029         estimate D2E/DX2                !
 ! D258  D(80,79,82,84)         50.957          estimate D2E/DX2                !
 ! D259  D(81,79,82,83)        -13.9892         estimate D2E/DX2                !
 ! D260  D(81,79,82,84)        167.8707         estimate D2E/DX2                !
 ! D261  D(79,82,83,85)       -177.689          estimate D2E/DX2                !
 ! D262  D(79,82,83,86)          2.7151         estimate D2E/DX2                !
 ! D263  D(84,82,83,85)          0.4957         estimate D2E/DX2                !
 ! D264  D(84,82,83,86)       -179.1002         estimate D2E/DX2                !
 ! D265  D(79,82,84,87)        177.7829         estimate D2E/DX2                !
 ! D266  D(79,82,84,88)         -2.3233         estimate D2E/DX2                !
 ! D267  D(83,82,84,87)         -0.4095         estimate D2E/DX2                !
 ! D268  D(83,82,84,88)        179.4844         estimate D2E/DX2                !
 ! D269  D(82,83,85,89)         -0.1713         estimate D2E/DX2                !
 ! D270  D(82,83,85,90)        179.9821         estimate D2E/DX2                !
 ! D271  D(86,83,85,89)        179.4243         estimate D2E/DX2                !
 ! D272  D(86,83,85,90)         -0.4222         estimate D2E/DX2                !
 ! D273  D(82,84,87,89)         -0.001          estimate D2E/DX2                !
 ! D274  D(82,84,87,91)        179.869          estimate D2E/DX2                !
 ! D275  D(88,84,87,89)       -179.8947         estimate D2E/DX2                !
 ! D276  D(88,84,87,91)         -0.0247         estimate D2E/DX2                !
 ! D277  D(83,85,89,87)         -0.2495         estimate D2E/DX2                !
 ! D278  D(83,85,89,92)       -179.952          estimate D2E/DX2                !
 ! D279  D(90,85,89,87)        179.5965         estimate D2E/DX2                !
 ! D280  D(90,85,89,92)         -0.1061         estimate D2E/DX2                !
 ! D281  D(84,87,89,85)          0.3345         estimate D2E/DX2                !
 ! D282  D(84,87,89,92)       -179.9628         estimate D2E/DX2                !
 ! D283  D(91,87,89,85)       -179.5352         estimate D2E/DX2                !
 ! D284  D(91,87,89,92)          0.1675         estimate D2E/DX2                !
 --------------------------------------------------------------------------------
 Trust Radius=3.00D-01 FncErr=1.00D-07 GrdErr=1.00D-06 EigMax=2.50D+02 EigMin=1.00D-04
 Number of steps in this run=    300 maximum allowed number of steps=    552.
 GradGradGradGradGradGradGradGradGradGradGradGradGradGradGradGradGradGrad

 Leave Link  103 at Wed Jul 24 12:30:15 2024, MaxMem= 13421772800 cpu:               0.9 elap:               0.1
 (Enter /mnt/data/applications/G16/g16/l202.exe)
 Symmetry turned off by external request.
 Stoichiometry    C41H43N3O4S
 Framework group  C1[X(C41H43N3O4S)]
 Deg. of freedom   270
 Full point group                 C1      NOp   1
                          Input orientation:                          
 ---------------------------------------------------------------------
 Center     Atomic      Atomic             Coordinates (Angstroms)
 Number     Number       Type             X           Y           Z
 ---------------------------------------------------------------------
      1          6           0       -1.409322    1.522950    0.423771
      2          6           0       -1.140474    2.858721    0.242235
      3          6           0        0.119788    3.233935   -0.251971
      4          6           0        1.078014    2.242512   -0.563037
      5          6           0        0.811558    0.878892   -0.377288
      6          6           0       -0.426409    0.569665    0.122482
      7          6           0        2.769758    4.337970   -1.145742
      8          6           0        1.703613    5.169790   -0.780406
      9          6           0        1.918863    6.556643   -0.760706
     10          1           0        1.086791    7.181642   -0.481143
     11          6           0        3.141602    7.101889   -1.082878
     12          6           0        4.194563    6.258306   -1.450324
     13          6           0        4.011771    4.890710   -1.484865
     14          1           0       -1.859085    3.628082    0.475029
     15          1           0        1.546878    0.121329   -0.603224
     16          1           0        3.284191    8.172312   -1.049344
     17          1           0        5.159521    6.672942   -1.706090
     18          1           0        4.827975    4.238696   -1.763927
     19          6           0        0.360260    4.681483   -0.412569
     20          8           0       -0.551470    5.484133   -0.215217
     21         16           0        2.668224    2.593125   -1.212628
     22          8           0       -0.937678   -0.655093    0.428151
     23          6           0       -3.035637   -1.594766    1.279001
     24          6           0       -2.191905   -2.674671    1.991014
     25          6           0       -4.238830   -1.194381    2.154356
     26          1           0       -1.256324   -2.831562    1.457931
     27          1           0       -4.703850   -0.299071    1.742871
     28          6           0       -1.907977   -2.406448    3.485097
     29          6           0       -3.982585   -1.002751    3.663615
     30          6           0       -3.242877   -2.221729    4.211993
     31          1           0       -3.848500   -3.121770    4.083390
     32          1           0       -3.071590   -2.099572    5.284255
     33          1           0       -2.751946   -3.609767    1.936131
     34          1           0       -4.968360   -2.000972    2.059925
     35          6           0       -3.553539   -2.172792   -0.058865
     36          1           0       -4.168570   -1.440397   -0.581089
     37          1           0       -2.725965   -2.456391   -0.708142
     38          1           0       -4.157758   -3.057575    0.137509
     39          6           0       -1.133989   -3.587716    4.069110
     40          1           0       -0.921437   -3.427477    5.126613
     41          1           0       -1.726565   -4.498272    3.975263
     42          1           0       -0.188819   -3.729986    3.550251
     43          6           0       -5.339107   -0.834322    4.352017
     44          1           0       -5.985112   -1.687015    4.141150
     45          1           0       -5.219490   -0.757715    5.433276
     46          1           0       -5.846193    0.066887    4.002254
     47          6           0       -1.062562   -1.135784    3.591457
     48          8           0        0.169609   -1.176655    3.429812
     49          7           0       -1.698105    0.017952    3.809645
     50          1           0       -1.119251    0.866194    3.803815
     51          6           0       -3.129282    0.228248    3.990055
     52          1           0       -3.425198    1.069408    3.363943
     53          1           0       -3.305451    0.512210    5.030621
     54          7           0       -2.534942    0.851559    0.907516
     55          6           0       -2.212626   -0.395807    0.912019
     56          6           0        2.977393    1.136631    2.560870
     57          1           0        2.993639    1.010895    1.474706
     58          1           0        3.377950    0.222762    2.997819
     59          6           0        3.818219    2.340035    2.950093
     60          1           0        4.803442    2.255174    2.492248
     61          1           0        3.955046    2.358380    4.033354
     62          6           0        3.124493    3.618198    2.491477
     63          1           0        3.689446    4.503340    2.776705
     64          1           0        3.065696    3.616377    1.402344
     65          6           0        0.955850    2.430201    3.266872
     66          7           0        1.600619    1.279947    3.019430
     67          1           0        1.063624    0.418679    3.161188
     68          8           0       -0.224187    2.441595    3.659791
     69          6           0        1.726219    3.695205    3.071589
     70          6           0        1.186448    4.831238    3.434076
     71          6           0        0.693139    5.979039    3.785457
     72          1           0        0.871691    6.326342    4.800522
     73          6           0        0.773114    8.099415    2.432509
     74          1           0        1.637111    7.734328    1.874221
     75          1           0        1.166541    8.622047    3.307419
     76          6           0       -0.074582    6.902451    2.873983
     77          1           0       -0.961678    7.262629    3.402009
     78          1           0       -0.413853    6.358257    1.994285
     79          6           0       -0.019343    9.083794    1.562426
     80          1           0       -0.830955    9.507424    2.159415
     81          1           0       -0.487136    8.539068    0.740444
     82          6           0        0.842901   10.188140    1.009786
     83          6           0        1.189094   10.223978   -0.340593
     84          6           0        1.349102   11.184272    1.847947
     85          6           0        2.024340   11.217295   -0.841678
     86          1           0        0.796103    9.470344   -1.010293
     87          6           0        2.182094   12.179732    1.353293
     88          1           0        1.085960   11.179982    2.898186
     89          6           0        2.526421   12.198210    0.004919
     90          1           0        2.279314   11.224535   -1.892926
     91          1           0        2.561590   12.943190    2.019204
     92          1           0        3.175307   12.972318   -0.381205
 ---------------------------------------------------------------------
 Rotational constants (GHZ):           0.1250420           0.0324186           0.0305771
 Leave Link  202 at Wed Jul 24 12:30:15 2024, MaxMem= 13421772800 cpu:               0.2 elap:               0.0
 (Enter /mnt/data/applications/G16/g16/l301.exe)
 General basis read from cards:  (5D, 7F)
 Centers:       1      2      3      4      5      6      7      8      9     11
 Centers:      12     13     19     23     24     25     28     29     30     35
 Centers:      39     43     47     51     55     56     59     62     65     69
 Centers:      70     71     73     76     79     82     83     84     85     87
 Centers:      89     10     14     15     16     17     18     26     27     31
 Centers:      32     33     34     36     37     38     40     41     42     44
 Centers:      45     46     50     52     53     57     58     60     61     63
 Centers:      64     67     72     74     75     77     78     80     81     86
 Centers:      88     90     91     92     20     22     48     68     49     54
 Centers:      66     21
 cc-pVTZ
 ****
 ======================================================================================================
                                       Pseudopotential Parameters
 ======================================================================================================
  Center     Atomic      Valence      Angular      Power
  Number     Number     Electrons     Momentum     of R      Exponent        Coefficient   SO-Coeffient
 ======================================================================================================
    1          6
                                   No pseudopotential on this center.
    2          6
                                   No pseudopotential on this center.
    3          6
                                   No pseudopotential on this center.
    4          6
                                   No pseudopotential on this center.
    5          6
                                   No pseudopotential on this center.
    6          6
                                   No pseudopotential on this center.
    7          6
                                   No pseudopotential on this center.
    8          6
                                   No pseudopotential on this center.
    9          6
                                   No pseudopotential on this center.
   10          1
                                   No pseudopotential on this center.
   11          6
                                   No pseudopotential on this center.
   12          6
                                   No pseudopotential on this center.
   13          6
                                   No pseudopotential on this center.
   14          1
                                   No pseudopotential on this center.
   15          1
                                   No pseudopotential on this center.
   16          1
                                   No pseudopotential on this center.
   17          1
                                   No pseudopotential on this center.
   18          1
                                   No pseudopotential on this center.
   19          6
                                   No pseudopotential on this center.
   20          8
                                   No pseudopotential on this center.
   21         16
                                   No pseudopotential on this center.
   22          8
                                   No pseudopotential on this center.
   23          6
                                   No pseudopotential on this center.
   24          6
                                   No pseudopotential on this center.
   25          6
                                   No pseudopotential on this center.
   26          1
                                   No pseudopotential on this center.
   27          1
                                   No pseudopotential on this center.
   28          6
                                   No pseudopotential on this center.
   29          6
                                   No pseudopotential on this center.
   30          6
                                   No pseudopotential on this center.
   31          1
                                   No pseudopotential on this center.
   32          1
                                   No pseudopotential on this center.
   33          1
                                   No pseudopotential on this center.
   34          1
                                   No pseudopotential on this center.
   35          6
                                   No pseudopotential on this center.
   36          1
                                   No pseudopotential on this center.
[...]
 0387,0.00000253,0.00000237,0.00000745,0.00000604,0.00000736,0.00004439
 ,-0.00034322,-0.00082227,-0.00003658,0.00002759,0.00005584,-0.00023878
 ,-0.00016557,0.00005351,0.00311308,-0.00557404,0.00313807,-0.00090105,
 0.00026733,0.00051724,-0.00268504,-0.01323177,-0.01284566,0.00460040,-
 0.00273982,0.00276785,-0.00068262,0.00049843,-0.00024707,-0.07956553,-
 0.07802576,-0.05563822,-0.00228428,0.00263882,-0.00067430,0.00635395,0
 .00596208,0.00548800,0.00025259,0.00022342,0.00034016,0.07435234,0.000
 00334,-0.00000210,-0.00000149,0.00000420,0.00000029,-0.00000144,-0.000
 00201,-0.00001214,0.00000279,-0.00000322,0.00000060,0.00000173,-0.0000
 0181,-0.00000060,0.00000048,-0.00000022,0.00000500,-0.00000041,0.00000
 599,0.00000519,-0.00000121,0.00001699,-0.00000114,-0.00000576,-0.00003
 165,-0.00000227,0.00000344,0.00000926,0.00002213,0.00001164,0.00001764
 ,-0.00000379,-0.00000374,-0.00000755,0.00000548,0.00000364,-0.00000074
 ,-0.00001279,0.00000052,0.00000070,0.00000099,-0.00000031,0.00000019,-
 0.00000016,0.00000012,-0.00002061,0.00000896,0.00000448,0.00000306,-0.
 00000058,-0.00000151,0.00000045,-0.00000194,-0.00000064,-0.00001244,0.
 00002724,0.00000307,0.00001007,-0.00003316,-0.00001750,0.00000103,-0.0
 0000763,-0.00000144,-0.00000350,-0.00000465,0.00000170,0.00000030,0.00
 000026,-0.00000086,-0.00000070,-0.00000003,0.00000010,0.00000010,-0.00
 000046,-0.00000018,-0.00000003,0.00000026,-0.00000007,0.00000031,0.000
 00003,0.,-0.00000002,-0.00000013,-0.00000041,-0.00000008,0.00000024,-0
 .00000004,0.00000004,-0.00000007,-0.00000026,-0.00000011,-0.00000014,0
 .,0.,0.00000004,0.00000020,-0.00000007,-0.00000035,0.00000010,-0.00000
 027,-0.00000011,0.00000013,-0.00000033,-0.00000049,0.00000095,0.000000
 11,0.00000003,0.00000005,0.00000003,0.00000012,0.00000003,-0.00000026,
 -0.00000034,-0.00000029,-0.00000020,0.00000015,-0.00000009,0.00000006,
 -0.00000003,0.00000021,-0.00000004,-0.00000016,0.00000002,0.00000002,0
 .00000002,-0.00000003,0.00000004,-0.00000002,-0.00000006,-0.00000007,-
 0.00000004,0.,-0.00000003,0.00000002,0.00000014,0.00000006,-0.00000007
 ,0.00000002,-0.00000066,0.00000134,-0.00000028,-0.00000069,-0.00000262
 ,0.00000102,-0.00000093,-0.00000249,0.00000119,0.00000262,0.00000387,-
 0.00000114,0.00000068,-0.00000025,-0.00000075,0.00000010,-0.00000016,-
 0.00000007,-0.00000016,0.00000005,0.00000022,-0.00000118,-0.00000281,0
 .00000084,0.00000118,0.00000115,-0.00000009,-0.00000433,0.00000134,0.0
 0000077,0.00000084,0.00000053,-0.00000069,0.00000071,-0.00000110,0.000
 00029,0.00000252,0.00000252,-0.00000356,0.00000199,-0.00000207,0.00000
 015,-0.00000028,-0.00000034,0.00000127,-0.00000659,-0.00000767,-0.0000
 0655,0.00000074,0.00000064,0.00000133,0.00000435,-0.00000048,-0.000001
 85,0.00001937,0.00002773,-0.00000320,-0.00000165,-0.00001666,0.0000014
 8,0.00000302,0.00000340,-0.00000204,-0.00001072,-0.00001127,0.00000457
 ,0.00000268,-0.00001913,-0.00000327,-0.00000342,0.00001755,0.00002974,
 -0.00003383,-0.00002976,-0.00000886,0.00000649,-0.00000281,0.00000547,
 -0.00014991,-0.00000761,-0.00001467,0.00001283,-0.00001308,-0.00000788
 ,0.00001260,-0.00000526,0.00000502,0.00008265,-0.00002609,0.00002709,-
 0.00000390,0.00000485,0.00000433,0.00000189,0.00000768,0.00000005,-0.0
 0012235,-0.00034064,-0.00098395,-0.00000698,0.00002613,0.00003203,-0.0
 0016154,-0.00037628,0.00011543,-0.00542342,0.00074636,0.00215348,0.000
 34098,-0.00019677,0.00078797,-0.00725466,-0.01203328,-0.01563607,-0.00
 257641,0.00347929,-0.00027826,0.00048744,-0.00042259,0.00000263,-0.077
 97892,-0.18914101,-0.12193222,0.00248152,-0.00055022,0.00076191,-0.000
 17916,0.00390208,0.00195165,-0.00009866,0.00007443,0.00012476,0.088289
 34,0.19573796,0.00000097,-0.00000013,-0.00000059,0.00000074,-0.0000003
 3,-0.00000015,-0.00000161,-0.00000210,0.00000021,0.00000097,0.00000050
 ,-0.00000014,-0.00000143,-0.00000064,0.00000050,0.00000058,0.00000197,
 -0.00000047,0.00000315,0.00000294,-0.00000094,0.00000111,-0.00000119,-
 0.00000040,-0.00000806,-0.00000071,0.00000281,0.00000701,0.00001017,-0
 .00000225,0.00001282,0.00000822,-0.00000205,-0.00000749,-0.00000312,0.
 00000219,0.00000028,-0.00000608,-0.00000020,0.00000016,0.00000013,-0.0
 0000016,0.00000011,-0.00000008,0.00000006,-0.00001430,0.00000873,0.000
 00130,0.00000086,0.00000029,-0.00000034,0.00000008,-0.00000145,-0.0000
 0008,0.00000517,0.00000493,-0.00000129,-0.00000345,-0.00000246,0.00000
 010,-0.00000104,-0.00000332,-0.00000004,-0.00000131,-0.00000182,0.0000
 0071,0.00000008,0.00000007,-0.00000034,-0.00000027,-0.00000006,0.00000
 013,-0.00000009,-0.00000029,-0.00000002,0.,0.00000014,-0.00000009,0.00
 000025,0.00000006,-0.00000003,-0.00000001,-0.00000012,-0.00000013,0.00
 000002,0.00000012,-0.00000002,-0.00000002,-0.00000010,-0.00000006,-0.0
 0000002,-0.00000004,-0.00000003,-0.00000001,0.00000004,0.00000005,-0.0
 0000003,-0.00000013,0.00000002,-0.00000009,-0.00000002,0.00000004,-0.0
 0000009,-0.00000018,0.00000043,0.00000006,0.00000002,0.,0.,0.00000004,
 0.,-0.00000008,-0.00000013,-0.00000011,-0.00000006,0.00000008,-0.00000
 002,0.00000003,0.00000002,0.00000007,-0.00000004,-0.00000009,-0.000000
 02,0.,-0.00000001,0.,0.00000001,0.,-0.00000004,0.,-0.00000001,0.,-0.00
 000001,0.00000002,0.00000006,0.00000004,-0.00000005,0.00000003,-0.0000
 0015,0.00000067,0.00000005,-0.00000022,-0.00000091,0.00000017,-0.00000
 029,-0.00000079,0.00000027,0.00000074,0.00000112,-0.00000027,0.0000002
 1,0.00000005,-0.00000013,0.00000004,-0.00000011,-0.00000005,-0.0000000
 5,0.00000002,0.,-0.00000051,-0.00000126,0.00000040,0.00000038,0.000000
 81,0.00000002,-0.00000073,0.00000039,0.00000007,0.00000015,0.00000014,
 -0.00000014,0.00000013,-0.00000041,0.00000019,0.00000029,0.00000042,-0
 .00000063,0.00000046,-0.00000035,0.,-0.00000005,-0.00000001,0.00000030
 ,-0.00000119,-0.00000163,-0.00000145,-0.00000004,0.00000013,0.00000023
 ,0.00000073,0.00000026,-0.00000044,0.00000435,0.00000606,-0.00000056,-
 0.00000057,-0.00000386,0.00000037,0.00000077,0.00000109,-0.00000042,-0
 .00000264,-0.00000265,0.00000099,0.00000086,-0.00000351,-0.00000059,-0
 .00000175,0.00000317,0.00000536,-0.00000743,-0.00000522,-0.00000495,0.
 00000072,0.00000055,0.00000011,-0.00004606,-0.00003139,-0.00000573,-0.
 00000087,0.00000475,-0.00000640,-0.00001021,0.00001533,-0.00001245,0.0
 0001066,-0.00000204,0.00000374,-0.00000233,-0.00000117,0.00000256,-0.0
 0000208,-0.00000566,0.00000085,0.00022625,0.00033242,0.00041091,-0.000
 03205,-0.00005425,0.00001211,0.00007398,0.00013664,-0.00003594,0.00271
 227,0.00135730,0.00040997,0.00041536,0.00073046,-0.00044073,0.00490116
 ,0.00930564,0.01050188,0.00331443,0.00052680,-0.00469321,-0.00026805,0
 .00001262,0.00002913,-0.05584748,-0.12192677,-0.16299943,-0.00115738,0
 .00010162,0.00071525,-0.01210012,-0.02303210,-0.01400806,-0.00058549,-
 0.00111866,-0.00082222,0.05904861,0.13272349,0.16977770,0.00000241,-0.
 00000077,-0.00000118,0.00000244,-0.00000070,-0.00000066,-0.00000344,-0
 .00000702,0.00000160,0.00000119,0.00000110,-0.00000026,-0.00000305,-0.
 00000122,0.00000094,0.00000103,0.00000409,-0.00000079,0.00000633,0.000
 00372,-0.00000153,0.00001439,-0.00000558,-0.00000467,-0.00004144,-0.00
 001047,0.00001088,0.00002595,0.00002573,-0.00000398,0.00001998,0.00000
 880,-0.00000974,-0.00001020,0.00000026,0.00000331,-0.00000051,-0.00001
 377,-0.00000032,0.00000047,0.00000048,-0.00000026,0.00000027,-0.000000
 11,0.00000018,-0.00002589,0.00001000,0.00001104,0.00000238,-0.00000017
 ,-0.00000056,0.00000043,-0.00000239,0.00000002,0.00000846,0.00001608,-
 0.00000168,-0.00000543,-0.00001406,-0.00000421,-0.00000068,-0.00000843
 ,-0.00000052,-0.00000338,-0.00000385,0.00000159,0.00000022,0.00000016,
 -0.00000072,-0.00000047,0.,0.00000012,0.00000006,-0.00000056,-0.000000
 11,-0.00000008,0.00000024,-0.00000005,0.00000027,0.00000011,-0.0000000
 4,-0.00000002,-0.00000011,-0.00000025,0.,0.00000021,-0.00000005,0.0000
 0003,-0.00000008,-0.00000005,-0.00000005,-0.00000009,-0.00000002,-0.00
 000004,0.00000004,0.00000002,-0.00000007,-0.00000031,0.00000008,-0.000
 00021,-0.00000006,0.00000012,-0.00000018,-0.00000045,0.00000084,0.0000
 0003,0.00000009,0.,0.,0.00000007,0.00000005,-0.00000019,-0.00000029,-0
 .00000027,0.,0.00000022,-0.00000003,0.00000006,-0.00000002,0.00000008,
 -0.00000011,-0.00000019,-0.00000001,-0.00000003,0.00000002,0.00000002,
 0.00000006,-0.00000001,0.00000003,-0.00000004,-0.00000004,0.00000001,-
 0.00000006,0.00000001,0.00000003,0.00000002,-0.00000003,0.00000003,0.0
 0000029,0.00000065,-0.00000016,-0.00000083,-0.00000141,0.00000040,-0.0
 0000078,-0.00000105,0.00000062,0.00000134,0.00000185,-0.00000048,0.000
 00059,-0.00000012,-0.00000020,0.00000006,-0.00000013,-0.00000012,-0.00
 000007,0.00000002,0.00000003,-0.00000140,-0.00000239,0.00000068,0.0000
 0112,0.00000084,0.,-0.00000079,0.00000056,-0.00000007,0.00000017,0.000
 00033,-0.00000022,0.00000013,-0.00000066,0.00000034,0.00000017,0.00000
 066,-0.00000086,0.00000058,-0.00000038,0.,0.00000005,-0.00000012,0.000
 00048,-0.00000090,-0.00000195,-0.00000086,-0.00000014,0.00000008,0.000
 00002,0.00000067,0.00000073,-0.00000051,0.00000703,0.00000937,-0.00000
 289,-0.00000114,-0.00000535,0.00000095,0.00000120,0.00000188,-0.000000
 61,-0.00000502,-0.00000420,0.00000221,0.00000029,-0.00000614,-0.000000
 54,-0.00000222,0.00000577,0.00000817,-0.00000114,-0.00000166,-0.000006
 23,0.00000232,-0.00000085,0.00000127,0.00000434,0.00002776,-0.00006060
 ,0.00001769,-0.00000503,-0.00000446,-0.00001451,0.00001812,-0.00002952
 ,0.00000058,0.00000028,-0.00003302,-0.00000113,0.00000084,0.00000104,-
 0.00000271,-0.00000479,0.00000370,-0.00056136,0.00056757,-0.00015359,-
 0.00006056,-0.00001212,0.00018909,0.00000373,-0.00004464,-0.00003996,-
 0.00045185,0.00061352,-0.00034343,0.00479067,-0.00401704,-0.00099930,0
 .00499693,-0.00220101,0.00235478,-0.00339532,-0.00712812,0.00522114,-0
 .00013398,-0.00045901,0.00032198,-0.00131238,-0.00546605,0.00120162,-0
 .00008097,-0.00038614,0.00008078,-0.14399876,-0.12915297,0.06276358,-0
 .00230556,0.00233846,-0.00087781,-0.00227378,0.00227582,-0.00063978,0.
 14478642,0.00000246,-0.00000129,-0.00000114,0.00000282,-0.00000018,-0.
 00000086,-0.00000265,-0.00000814,0.00000186,-0.00000100,0.00000041,0.0
 0000083,-0.00000178,-0.00000052,0.00000049,0.00000003,0.00000368,-0.00
 000036,0.00000796,0.00000396,-0.00000265,0.00001604,-0.00000040,-0.000
 00426,-0.00003210,0.00000526,0.00001447,0.00001461,0.00003699,-0.00000
 659,0.00002655,-0.00000267,-0.00000595,-0.00001399,0.00000200,0.000004
 37,0.00000033,-0.00001570,-0.00000042,0.00000040,0.00000071,-0.0000002
 0,0.00000013,-0.00000005,0.00000013,-0.00003287,0.00001254,0.00000401,
 0.00000439,-0.00000106,-0.00000129,0.00000025,-0.00000283,-0.00000034,
 -0.00000151,0.00001905,0.00000061,0.00000113,-0.00001940,-0.00000652,0
 .00000013,-0.00000780,-0.00000125,-0.00000247,-0.00000370,0.00000117,0
 .00000024,0.00000016,-0.00000069,-0.00000047,0.00000006,0.00000008,0.0
 0000006,-0.00000034,-0.00000015,-0.00000006,0.00000020,-0.00000004,0.0
 0000023,0.00000002,0.,0.,-0.00000004,-0.00000026,0.00000007,0.00000019
 ,-0.00000004,0.00000006,0.,-0.00000009,-0.00000009,-0.00000016,-0.0000
 0002,-0.00000003,0.00000002,0.00000004,-0.00000009,-0.00000032,0.00000
 009,-0.00000023,-0.00000009,0.00000010,-0.00000024,-0.00000037,0.00000
 072,0.00000008,0.00000002,0.00000006,0.00000002,0.00000008,0.00000003,
 -0.00000021,-0.00000028,-0.00000024,-0.00000004,0.00000023,-0.00000003
 ,0.00000004,-0.00000004,0.00000012,-0.00000010,-0.00000019,0.00000002,
 0.00000002,0.00000001,-0.00000002,0.00000002,0.00000009,0.00000003,-0.
 00000006,-0.00000008,0.,-0.00000005,0.00000003,0.00000002,0.00000008,-
 0.00000010,0.00000007,-0.00000091,0.00000125,-0.00000005,0.00000004,-0
 .00000172,0.00000047,-0.00000042,-0.00000197,0.00000065,0.00000157,0.0
 0000241,-0.00000061,0.00000024,-0.00000007,-0.00000037,0.00000009,-0.0
 0000012,0.,-0.00000003,0.00000006,-0.00000001,-0.00000102,-0.00000243,
 0.00000069,0.00000056,0.00000106,0.00000012,-0.00000272,0.00000075,0.0
 0000044,0.00000038,0.00000038,-0.00000052,0.00000040,-0.00000068,0.000
 00030,0.00000111,0.00000148,-0.00000162,0.00000127,-0.00000119,0.00000
 002,-0.00000014,-0.00000019,0.00000065,-0.00000362,-0.00000448,-0.0000
 0428,0.00000029,0.00000043,0.00000104,0.00000216,-0.00000014,-0.000001
 34,0.00001019,0.00001593,-0.00000099,-0.00000048,-0.00000983,0.0000007
 3,0.00000166,0.00000210,-0.00000117,-0.00000535,-0.00000647,0.00000228
 ,0.00000182,-0.00001013,-0.00000190,-0.00000167,0.00000843,0.00001455,
 -0.00002188,-0.00001751,-0.00000467,0.00000280,-0.00000014,0.00000182,
 -0.00008945,-0.00000340,0.00005334,-0.00001569,0.00000566,-0.00001347,
 0.00001325,-0.00001730,0.00002524,0.00003833,-0.00001545,0.00004015,-0
 .00000241,0.00000040,0.00000412,0.00000296,0.00000372,-0.00000193,0.00
 046317,-0.00034829,0.00018304,-0.00000182,-0.00000803,-0.00004974,0.00
 002811,0.00003251,0.00001094,0.00065784,-0.00021067,-0.00049629,-0.003
 87568,0.00063043,-0.00432009,-0.00246247,0.00342817,-0.00087316,-0.012
 97994,-0.01178660,0.01005315,-0.00074078,-0.00062716,0.00047858,0.0006
 4497,0.00324706,-0.00157711,-0.00006095,0.00007440,-0.00016173,-0.1292
 3100,-0.19335735,0.06797263,0.00250467,-0.00056501,0.00043669,0.002094
 89,-0.00081808,0.00091699,0.14303760,0.20033781,-0.00000039,0.00000041
 ,0.00000025,0.00000006,-0.00000082,-0.00000002,-0.00000110,0.00000018,
 0.00000007,0.00000129,0.00000034,-0.00000057,-0.00000050,-0.00000047,0
 .00000021,0.00000031,-0.00000008,-0.00000012,0.00000145,-0.00000153,-0
 .00000100,0.00000743,-0.00000291,-0.00000155,-0.00001780,-0.00000769,0
 .00001077,0.00001010,0.00001656,-0.00001188,0.00000184,0.00000095,-0.0
 0000321,-0.00000116,0.00000253,-0.00000002,-0.00000046,-0.00000354,-0.
 00000015,-0.00000010,0.00000016,-0.00000004,-0.00000005,0.00000016,0.,
 -0.00000541,0.00000100,0.00000330,0.00000100,-0.00000037,0.00000003,0.
 00000024,-0.00000037,0.00000011,0.00000780,0.00000003,-0.00000192,-0.0
 0000564,0.00000245,0.00000503,-0.00000009,-0.00000215,-0.00000018,-0.0
 0000033,0.,0.00000011,-0.00000003,0.00000006,0.00000002,0.00000002,0.,
 -0.00000010,0.00000007,0.00000004,-0.00000003,0.,-0.00000001,0.0000000
 2,-0.00000006,0.,0.,0.00000003,0.00000003,0.00000006,-0.00000004,-0.00
 000007,-0.00000005,0.00000002,0.00000005,0.00000006,0.,0.00000003,0.,0
 .00000002,-0.00000001,-0.00000001,0.00000003,0.00000004,0.00000003,0.,
 -0.00000003,0.00000002,-0.00000001,-0.00000003,-0.00000002,-0.00000003
 ,0.,0.,0.00000003,0.,0.,0.,0.00000002,0.,-0.00000001,-0.00000008,0.000
 00007,0.,0.,-0.00000005,0.00000004,0.00000007,0.,0.,0.,0.,0.00000002,-
 0.00000003,0.00000004,0.,0.,0.,0.00000001,0.,0.,-0.00000003,0.00000005
 ,-0.00000004,0.00000020,-0.00000033,-0.00000012,0.00000014,0.00000072,
 -0.00000009,0.00000029,0.00000078,-0.00000006,-0.00000079,-0.00000118,
 0.00000017,-0.00000003,0.00000002,0.00000009,-0.00000002,0.00000001,-0
 .00000004,0.,-0.00000005,0.00000005,-0.00000007,0.,0.00000002,0.000000
 02,-0.00000038,-0.00000007,0.00000128,-0.00000052,-0.00000049,-0.00000
 037,0.00000005,0.00000018,-0.00000019,0.00000032,0.00000002,-0.0000007
 5,-0.00000062,0.00000113,-0.00000058,0.00000059,-0.00000004,0.00000017
 ,-0.00000003,-0.00000023,0.00000177,0.00000213,0.00000136,-0.00000011,
 -0.00000018,-0.00000032,-0.00000148,0.00000025,0.00000039,-0.00000519,
 -0.00000818,0.00000030,0.00000040,0.00000505,0.,-0.00000085,-0.0000009
 0,0.00000043,0.00000276,0.00000330,-0.00000082,-0.00000052,0.00000546,
 0.00000097,0.00000136,-0.00000531,-0.00000752,0.00000918,0.00000585,0.
 00000314,-0.00000162,0.00000005,-0.00000081,0.00002865,0.00000672,-0.0
 0001346,-0.00000006,0.00000772,0.00000195,0.00001073,-0.00001879,0.000
 02647,-0.00001453,0.00001056,0.00000142,0.00000164,-0.00000129,-0.0000
 0236,0.00000265,0.00000450,-0.00000395,-0.00016712,0.00018816,0.000124
 82,-0.00003979,-0.00001499,0.00006077,0.00005891,0.00007942,-0.0000012
 8,-0.00037678,-0.00053514,-0.00100378,-0.00032954,-0.00347461,-0.00166
 501,0.00179141,-0.00168807,-0.00496000,-0.01264475,-0.01497816,0.01086
 613,-0.00057596,-0.00078827,0.00034071,0.01898053,0.02343929,-0.006267
 56,0.00095728,0.00110181,-0.00047411,0.06278295,0.06799092,-0.09380671
 ,-0.00034247,0.00119241,0.00081373,-0.00117066,0.00014941,0.00116250,-
 0.06895666,-0.07268346,0.09480278\\0.00000212,0.00000107,-0.00000109,-
 0.00000257,-0.00000145,0.00000110,-0.00000032,-0.00000069,-0.00000598,
 0.00000056,0.00000180,-0.00000250,-0.00000276,-0.00000294,0.00000220,-
 0.00000031,0.00000079,-0.00000267,-0.00000095,-0.00000035,0.00000137,-
 0.00000222,-0.00000025,-0.00000462,0.00000212,0.00000264,-0.00000176,-
 0.00000268,0.00000056,0.00000017,-0.00000127,0.00000026,0.00000010,-0.
 00000062,-0.00000096,-0.00000030,0.00000169,0.00000290,-0.00000037,0.0
 0000012,0.00000001,0.00000001,0.00000069,0.00000082,0.00000012,-0.0000
 0029,-0.00000009,0.00000018,-0.00000086,0.00000082,-0.00000018,-0.0000
 0059,0.00000034,0.00000021,0.00000381,0.00000143,0.00001964,-0.0000014
 2,-0.00000084,-0.00000795,-0.00000026,-0.00000016,-0.00000003,0.000003
 84,-0.00000110,0.00000143,0.00000008,-0.00000280,0.00000125,0.00000162
 ,-0.00000349,-0.00000142,-0.00000162,0.00000027,-0.00000175,0.00000018
 ,0.00000014,0.00000018,0.00000134,-0.00000068,0.00000047,-0.00000018,0
 .00000070,-0.00000250,0.00000338,-0.00000148,0.00000036,0.00000012,-0.
 00000026,0.00000093,0.00000145,-0.00000051,-0.00000015,0.00000061,-0.0
 0000020,-0.00000027,0.00000174,0.00000073,0.,0.00000159,-0.00000044,0.
 00000036,0.00000010,0.00000143,-0.00000073,0.00000054,-0.00000090,-0.0
 0000013,0.00000079,-0.00000012,0.00000039,0.00000116,-0.00000001,0.000
 00079,0.00000201,-0.00000102,0.00000176,0.00000115,-0.00000002,-0.0000
 0020,0.00000088,0.00000053,-0.00000024,0.00000096,-0.00000014,-0.00000
 013,-0.00000183,0.00000002,0.00000127,0.00000107,-0.00000072,0.0000001
 4,0.00000073,-0.00000095,-0.00000020,0.00000097,-0.00000095,-0.0000000
 3,0.00000385,-0.00000241,0.00000555,-0.00000071,0.00000216,-0.00000068
 ,0.00000284,0.00000053,0.00000139,-0.00000107,-0.00000124,0.00000005,-
 0.00000182,0.00000105,-0.00000120,0.00000039,-0.00000033,0.00000013,0.
 00000090,-0.00000134,-0.00000040,-0.00000152,-0.00000059,0.00000155,-0
 .00000141,0.00000222,-0.00000426,-0.00000076,-0.00000193,0.00000078,0.
 00000083,0.00000031,-0.00000025,-0.00000005,0.00000061,-0.00000007,0.0
 0000285,0.00000069,0.00000038,-0.00000033,0.00000097,0.00000011,-0.000
 00064,0.00000048,-0.00000063,-0.00000068,0.00000030,0.00000083,0.00000
 030,0.00000017,0.00000091,-0.00000081,0.00000080,-0.00000140,-0.000002
 59,0.00000372,0.00001132,0.00000145,0.00000064,-0.00000429,0.00000007,
 -0.00000255,0.00000072,0.00000391,-0.00000184,-0.00000526,-0.00000320,
 0.00000035,-0.00000590,-0.00000065,0.00000117,-0.00000047,0.00000717,0
 .00000356,-0.00000126,-0.00000257,-0.00000237,0.00000110,0.00000385,0.
 00000455,0.00000040,-0.00000207,0.00000010,0.00000008,-0.00000156,-0.0
 0000106,0.00000012,-0.00000927,-0.00000489,0.00000073,0.00000120,0.000
 00117,-0.00000157,0.00000070,-0.00000020,0.00000186,-0.00000192,-0.000
 00034,0.00000135,-0.00000060,-0.00000024,0.00000009,-0.00000041,0.0000
 0046,0.00000025,-0.00000039,-0.00000161,-0.00000383,-0.00000169,0.0000
 0021,0.00000188,-0.00000074,0.00000025,0.00000025,-0.00000101,0.000001
 30,0.00000002,-0.00000067,-0.00000016,-0.00000022,-0.00000152,0.000000
 95,0.00000045,-0.00000118,0.00000013,0.00000044,-0.00000117,-0.0000003
 3,-0.00000020,-0.00000111,0.00000010,0.00000007,-0.00000133,0.00000014
 ,-0.00000012,-0.00000152,0.00000063,0.\\\@


      LET US REMEMBER, PLEASE, THAT THE SEARCH FOR THE CONSTITUTION
      OF THE WORLD IS ONE OF THE GREATEST AND NOBLEST PROBLEMS PRESENTED 
      BY NATURE.

                                                  -- GALILEO
 Job cpu time:      31 days 11 hours 34 minutes 35.0 seconds.
 Elapsed time:       1 days  7 hours 32 minutes 43.8 seconds.
 File lengths (MBytes):  RWF=  22953 Int=      0 D2E=      0 Chk=    364 Scr=      1
 Normal termination of Gaussian 16 at Fri Jul 26 09:55:32 2024.
