 Entering Gaussian System, Link 0=g16
 Initial command:
 /mnt/data/applications/G16/g16/l1.exe "/scratch/Gau-28515.inp" -scrdir="/scratch/"
 Entering Link 1 = /mnt/data/applications/G16/g16/l1.exe PID=     28516.
  
 Copyright (c) 1988,1990,1992,1993,1995,1998,2003,2009,2016,
            Gaussian, Inc.  All Rights Reserved.
  
 This is part of the Gaussian(R) 16 program.  It is based on
 the Gaussian(R) 09 system (copyright 2009, Gaussian, Inc.),
 the Gaussian(R) 03 system (copyright 2003, Gaussian, Inc.),
 the Gaussian(R) 98 system (copyright 1998, Gaussian, Inc.),
 the Gaussian(R) 94 system (copyright 1995, Gaussian, Inc.),
 the Gaussian 92(TM) system (copyright 1992, Gaussian, Inc.),
 the Gaussian 90(TM) system (copyright 1990, Gaussian, Inc.),
 the Gaussian 88(TM) system (copyright 1988, Gaussian, Inc.),
 the Gaussian 86(TM) system (copyright 1986, Carnegie Mellon
 University), and the Gaussian 82(TM) system (copyright 1983,
 Carnegie Mellon University). Gaussian is a federally registered
 trademark of Gaussian, Inc.
  
 This software contains proprietary and confidential information,
 including trade secrets, belonging to Gaussian, Inc.
  
 This software is provided under written license and may be
 used, copied, transmitted, or stored only in accord with that
 written license.
  
 The following legend is applicable only to US Government
 contracts under FAR:
  
                    RESTRICTED RIGHTS LEGEND
  
 Use, reproduction and disclosure by the US Government is
 subject to restrictions as set forth in subparagraphs (a)
 and (c) of the Commercial Computer Software - Restricted
 Rights clause in FAR 52.227-19.
  
 Gaussian, Inc.
 340 Quinnipiac St., Bldg. 40, Wallingford CT 06492
  
  
 ---------------------------------------------------------------
 Warning -- This program may not be used in any manner that
 competes with the business of Gaussian, Inc. or will provide
 assistance to any competitor of Gaussian, Inc.  The licensee
 of this program is prohibited from giving any competitor of
 Gaussian, Inc. access to this program.  By using this program,
 the user acknowledges that Gaussian, Inc. is engaged in the
 business of creating and licensing software in the field of
 computational chemistry and represents and warrants to the
 licensee that it is not a competitor of Gaussian, Inc. and that
 it will not use this program in any manner prohibited above.
 ---------------------------------------------------------------
  

 Cite this work as:
 Gaussian 16, Revision A.03,
 M. J. Frisch, G. W. Trucks, H. B. Schlegel, G. E. Scuseria, 
 M. A. Robb, J. R. Cheeseman, G. Scalmani, V. Barone, 
 G. A. Petersson, H. Nakatsuji, X. Li, M. Caricato, A. V. Marenich, 
 J. Bloino, B. G. Janesko, R. Gomperts, B. Mennucci, H. P. Hratchian, 
 J. V. Ortiz, A. F. Izmaylov, J. L. Sonnenberg, D. Williams-Young, 
 F. Ding, F. Lipparini, F. Egidi, J. Goings, B. Peng, A. Petrone, 
 T. Henderson, D. Ranasinghe, V. G. Zakrzewski, J. Gao, N. Rega, 
 G. Zheng, W. Liang, M. Hada, M. Ehara, K. Toyota, R. Fukuda, 
 J. Hasegawa, M. Ishida, T. Nakajima, Y. Honda, O. Kitao, H. Nakai, 
 T. Vreven, K. Throssell, J. A. Montgomery, Jr., J. E. Peralta, 
 F. Ogliaro, M. J. Bearpark, J. J. Heyd, E. N. Brothers, K. N. Kudin, 
 V. N. Staroverov, T. A. Keith, R. Kobayashi, J. Normand, 
 K. Raghavachari, A. P. Rendell, J. C. Burant, S. S. Iyengar, 
 J. Tomasi, M. Cossi, J. M. Millam, M. Klene, C. Adamo, R. Cammi, 
 J. W. Ochterski, R. L. Martin, K. Morokuma, O. Farkas, 
 J. B. Foresman, and D. J. Fox, Gaussian, Inc., Wallingford CT, 2016.
 
 ******************************************
 Gaussian 16:  AM64L-G16RevA.03 25-Dec-2016
                12-Jul-2024 
 ******************************************
 %nprocshared=12
 Will use up to   12 processors via shared memory.
 %mem=20GB
 %chk=TX-d-e-ent.chk
 ----------------------------------------------------------------------
 #p opt freq b3lyp/gen pseudo=read EmpiricalDispersion=GD3BJ pop=(orbit
 als=20) optcyc=300 nosymm scrf=(pcm,solvent=acetonitrile)
 ----------------------------------------------------------------------
 1/6=300,18=20,19=15,26=3,38=1/1,3;
 2/9=110,12=2,15=1,17=6,18=5,40=1/2;
 3/5=7,11=2,16=1,17=8,25=1,30=1,70=2201,71=1,72=2,74=-5,124=41/1,2,3;
 4//1;
 5/5=2,38=5,53=2/2;
 6/7=2,8=2,9=2,10=2,28=1,96=20/1;
 7/30=1/1,2,3,16;
 1/6=300,18=20,19=15,26=3/3(2);
 2/9=110,15=1/2;
 99//99;
 2/9=110,15=1/2;
 3/5=7,6=1,11=2,16=1,17=8,25=1,30=1,70=2205,71=1,72=2,74=-5,82=7,124=41/1,2,3;
 4/5=5,16=3,69=1/1;
 5/5=2,38=5,53=2/2;
 7/30=1/1,2,3,16;
 1/6=300,18=20,19=15,26=3/3(-5);
 2/9=110,15=1/2;
 6/7=2,8=2,9=2,10=2,19=2,28=1,96=20/1;
 99/9=1/99;
 Leave Link    1 at Fri Jul 12 09:46:03 2024, MaxMem=  2684354560 cpu:               1.1 elap:               0.1
 (Enter /mnt/data/applications/G16/g16/l101.exe)
 -------------------
 Title Card Required
 -------------------
 Symbolic Z-matrix:
 Charge =  0 Multiplicity = 1
 C                    -1.43321   1.42503   0.08315 
 C                    -1.29681   2.67682  -0.38562 
 C                    -0.01603   3.06815  -0.78512 
 C                     1.0599    2.15141  -0.69867 
 C                     0.82572   0.85836  -0.26066 
 C                    -0.40101   0.54771   0.12133 
 C                     2.69086   4.23655  -1.7331 
 C                     1.52923   5.01345  -1.75278 
 C                     1.58936   6.32044  -2.19868 
 H                     0.70183   6.91975  -2.20215 
 C                     2.76286   6.8323   -2.62021 
 C                     3.92435   6.04376  -2.62295 
 C                     3.88112   4.76396  -2.20156 
 H                    -2.11824   3.3606   -0.44846 
 H                     1.60981   0.1363   -0.22205 
 H                     2.79945   7.84178  -2.95217 
 H                     4.84545   6.45279  -2.95291 
 H                     4.76468   4.15591  -2.21557 
 C                     0.17195   4.48784  -1.29282 
 O                    -0.82545   5.24604  -1.32522 
 S                     2.70607   2.6069   -1.08657 
 O                    -0.79303  -0.69637   0.62136 
 C                    -3.04636  -1.58281   1.37803 
 C                    -2.23144  -2.57913   2.25758 
 C                    -4.28844  -1.10601   2.14662 
 H                    -1.31008  -2.77766   1.75515 
 H                    -4.75699  -0.32218   1.58498 
 C                    -1.95662  -2.0666    3.72358 
 C                    -4.00517  -0.6188    3.60411 
 C                    -3.31445  -1.75837   4.37471 
 H                    -3.93138  -2.63566   4.34735 
 H                    -3.16605  -1.45675   5.38359 
 H                    -2.80666  -3.47607   2.34955 
 H                    -4.95407  -1.94201   2.23155 
 C                    -3.51593  -2.32779   0.10591 
 H                    -4.09922  -1.67562  -0.50834 
 H                    -2.6626   -2.66281  -0.4428 
 H                    -4.11135  -3.17225   0.38918 
 C                    -1.234    -3.18054   4.47727 
 H                    -1.06663  -2.86932   5.48425 
 H                    -1.84011  -4.06375   4.47299 
 H                    -0.30138  -3.3845    4.00119 
 C                    -5.38875  -0.31541   4.23274 
 H                    -6.01449  -1.18507   4.16485 
 H                    -5.25477  -0.05798   5.26383 
 H                    -5.85516   0.49526   3.72017 
 C                    -1.08618  -0.80411   3.76845 
 O                     0.16459  -0.958     3.89276 
 N                    -1.63799   0.43222   3.66625 
 H                    -1.00635   1.21867   3.54049 
 C                    -3.12523   0.66356   3.77125 
 H                    -3.46354   1.41446   3.05566 
 H                    -3.27601   1.00495   4.75283 
 N                    -2.59959   0.77129   0.62634 
 C                    -2.17647  -0.43326   0.89932 
 C                     3.08133   0.48645   2.82145 
 H                     3.09778  -0.02193   1.90105 
 H                     3.5135   -0.14635   3.59469 
 C                     3.97971   1.74187   2.66316 
 H                     4.94071   1.43244   2.27432 
 H                     4.13649   2.232     3.602 
 C                     3.28631   2.70874   1.69709 
 H                     3.90668   3.58192   1.58363 
 H                     3.11352   2.25835   0.75928 
 C                     1.12032   2.01776   2.97903 
 N                     1.6354    0.80183   3.14586 
 H                     1.02923   0.07655   3.45368 
 O                    -0.03804   2.27877   3.35332 
 C                     1.93508   3.08876   2.30672 
 C                     1.45461   4.33879   2.23504 
 C                     1.03438   5.59651   2.03276 
 H                     0.59012   5.84941   1.09213 
 C                    -0.06068   7.07617   3.76783 
 H                    -0.48888   6.23927   4.2753 
 H                    -0.73676   7.42978   3.02325 
 C                     1.24492   6.67826   3.09524 
 H                     1.63668   7.54759   2.61756 
 H                     1.95353   6.31302   3.81515 
 C                     0.21868   8.21035   4.77592 
 H                     0.66356   9.03976   4.27015 
 H                     0.87927   7.85605   5.53701 
 C                    -1.11021   8.66256   5.41655 
 C                    -1.5818    8.02336   6.56448 
 C                    -1.84142   9.71619   4.8473 
 C                    -2.79695   8.41886   7.13795 
 H                    -1.01642   7.22616   7.00308 
 C                    -3.05632   10.11416   5.42248 
 H                    -1.4756    10.21558   3.97203 
 C                    -3.53434   9.46483   6.56785 
 H                    -3.16149   7.92294   8.01621 
 H                    -3.61856   10.9187   4.98828 
 H                    -4.46339   9.76488   7.00486 
 
 Add virtual bond connecting atoms H67        and O48        Dist= 2.68D+00.
 Add virtual bond connecting atoms O68        and H50        Dist= 2.74D+00.
 ITRead=  0  0  0  0  0  0  0  0  0  0  0  0  0  0  0  0  0  0  0  0
 ITRead=  0  0  0  0  0  0  0  0  0  0  0  0  0  0  0  0  0  0  0  0
 ITRead=  0  0  0  0  0  0  0  0  0  0  0  0  0  0  0  0  0  0  0  0
 ITRead=  0  0  0  0  0  0  0  0  0  0  0  0  0  0  0  0  0  0  0  0
 ITRead=  0  0  0  0  0  0  0  0  0  0  0  0
 MicOpt= -1 -1 -1 -1 -1 -1 -1 -1 -1 -1 -1 -1 -1 -1 -1 -1 -1 -1 -1 -1
 MicOpt= -1 -1 -1 -1 -1 -1 -1 -1 -1 -1 -1 -1 -1 -1 -1 -1 -1 -1 -1 -1
 MicOpt= -1 -1 -1 -1 -1 -1 -1 -1 -1 -1 -1 -1 -1 -1 -1 -1 -1 -1 -1 -1
 MicOpt= -1 -1 -1 -1 -1 -1 -1 -1 -1 -1 -1 -1 -1 -1 -1 -1 -1 -1 -1 -1
 MicOpt= -1 -1 -1 -1 -1 -1 -1 -1 -1 -1 -1 -1
 NAtoms=     92 NQM=       92 NQMF=       0 NMMI=      0 NMMIF=      0
                NMic=       0 NMicF=      0.
                    Isotopes and Nuclear Properties:
 (Nuclear quadrupole moments (NQMom) in fm**2, nuclear magnetic moments (NMagM)
  in nuclear magnetons)

  Atom         1           2           3           4           5           6           7           8           9          10
 IAtWgt=          12          12          12          12          12          12          12          12          12           1
 AtmWgt=  12.0000000  12.0000000  12.0000000  12.0000000  12.0000000  12.0000000  12.0000000  12.0000000  12.0000000   1.0078250
 NucSpn=           0           0           0           0           0           0           0           0           0           1
 AtZEff=  -0.0000000  -0.0000000  -0.0000000  -0.0000000  -0.0000000  -0.0000000  -0.0000000  -0.0000000  -0.0000000  -0.0000000
 NQMom=    0.0000000   0.0000000   0.0000000   0.0000000   0.0000000   0.0000000   0.0000000   0.0000000   0.0000000   0.0000000
 NMagM=    0.0000000   0.0000000   0.0000000   0.0000000   0.0000000   0.0000000   0.0000000   0.0000000   0.0000000   2.7928460
 AtZNuc=   6.0000000   6.0000000   6.0000000   6.0000000   6.0000000   6.0000000   6.0000000   6.0000000   6.0000000   1.0000000

  Atom        11          12          13          14          15          16          17          18          19          20
 IAtWgt=          12          12          12           1           1           1           1           1          12          16
 AtmWgt=  12.0000000  12.0000000  12.0000000   1.0078250   1.0078250   1.0078250   1.0078250   1.0078250  12.0000000  15.9949146
 NucSpn=           0           0           0           1           1           1           1           1           0           0
 AtZEff=  -0.0000000  -0.0000000  -0.0000000  -0.0000000  -0.0000000  -0.0000000  -0.0000000  -0.0000000  -0.0000000  -0.0000000
 NQMom=    0.0000000   0.0000000   0.0000000   0.0000000   0.0000000   0.0000000   0.0000000   0.0000000   0.0000000   0.0000000
 NMagM=    0.0000000   0.0000000   0.0000000   2.7928460   2.7928460   2.7928460   2.7928460   2.7928460   0.0000000   0.0000000
 AtZNuc=   6.0000000   6.0000000   6.0000000   1.0000000   1.0000000   1.0000000   1.0000000   1.0000000   6.0000000   8.0000000

  Atom        21          22          23          24          25          26          27          28          29          30
 IAtWgt=          32          16          12          12          12           1           1          12          12          12
 AtmWgt=  31.9720718  15.9949146  12.0000000  12.0000000  12.0000000   1.0078250   1.0078250  12.0000000  12.0000000  12.0000000
 NucSpn=           0           0           0           0           0           1           1           0           0           0
 AtZEff=  -0.0000000  -0.0000000  -0.0000000  -0.0000000  -0.0000000  -0.0000000  -0.0000000  -0.0000000  -0.0000000  -0.0000000
 NQMom=    0.0000000   0.0000000   0.0000000   0.0000000   0.0000000   0.0000000   0.0000000   0.0000000   0.0000000   0.0000000
 NMagM=    0.0000000   0.0000000   0.0000000   0.0000000   0.0000000   2.7928460   2.7928460   0.0000000   0.0000000   0.0000000
 AtZNuc=  16.0000000   8.0000000   6.0000000   6.0000000   6.0000000   1.0000000   1.0000000   6.0000000   6.0000000   6.0000000

  Atom        31          32          33          34          35          36          37          38          39          40
 IAtWgt=           1           1           1           1          12           1           1           1          12           1
 AtmWgt=   1.0078250   1.0078250   1.0078250   1.0078250  12.0000000   1.0078250   1.0078250   1.0078250  12.0000000   1.0078250
 NucSpn=           1           1           1           1           0           1           1           1           0           1
 AtZEff=  -0.0000000  -0.0000000  -0.0000000  -0.0000000  -0.0000000  -0.0000000  -0.0000000  -0.0000000  -0.0000000  -0.0000000
 NQMom=    0.0000000   0.0000000   0.0000000   0.0000000   0.0000000   0.0000000   0.0000000   0.0000000   0.0000000   0.0000000
 NMagM=    2.7928460   2.7928460   2.7928460   2.7928460   0.0000000   2.7928460   2.7928460   2.7928460   0.0000000   2.7928460
 AtZNuc=   1.0000000   1.0000000   1.0000000   1.0000000   6.0000000   1.0000000   1.0000000   1.0000000   6.0000000   1.0000000

  Atom        41          42          43          44          45          46          47          48          49          50
 IAtWgt=           1           1          12           1           1           1          12          16          14           1
 AtmWgt=   1.0078250   1.0078250  12.0000000   1.0078250   1.0078250   1.0078250  12.0000000  15.9949146  14.0030740   1.0078250
 NucSpn=           1           1           0           1           1           1           0           0           2           1
 AtZEff=  -0.0000000  -0.0000000  -0.0000000  -0.0000000  -0.0000000  -0.0000000  -0.0000000  -0.0000000  -0.0000000  -0.0000000
 NQMom=    0.0000000   0.0000000   0.0000000   0.0000000   0.0000000   0.0000000   0.0000000   0.0000000   2.0440000   0.0000000
 NMagM=    2.7928460   2.7928460   0.0000000   2.7928460   2.7928460   2.7928460   0.0000000   0.0000000   0.4037610   2.7928460
 AtZNuc=   1.0000000   1.0000000   6.0000000   1.0000000   1.0000000   1.0000000   6.0000000   8.0000000   7.0000000   1.0000000

  Atom        51          52          53          54          55          56          57          58          59          60
 IAtWgt=          12           1           1          14          12          12           1           1          12           1
 AtmWgt=  12.0000000   1.0078250   1.0078250  14.0030740  12.0000000  12.0000000   1.0078250   1.0078250  12.0000000   1.0078250
 NucSpn=           0           1           1           2           0           0           1           1           0           1
 AtZEff=  -0.0000000  -0.0000000  -0.0000000  -0.0000000  -0.0000000  -0.0000000  -0.0000000  -0.0000000  -0.0000000  -0.0000000
 NQMom=    0.0000000   0.0000000   0.0000000   2.0440000   0.0000000   0.0000000   0.0000000   0.0000000   0.0000000   0.0000000
 NMagM=    0.0000000   2.7928460   2.7928460   0.4037610   0.0000000   0.0000000   2.7928460   2.7928460   0.0000000   2.7928460
 AtZNuc=   6.0000000   1.0000000   1.0000000   7.0000000   6.0000000   6.0000000   1.0000000   1.0000000   6.0000000   1.0000000

  Atom        61          62          63          64          65          66          67          68          69          70
 IAtWgt=           1          12           1           1          12          14           1          16          12          12
 AtmWgt=   1.0078250  12.0000000   1.0078250   1.0078250  12.0000000  14.0030740   1.0078250  15.9949146  12.0000000  12.0000000
 NucSpn=           1           0           1           1           0           2           1           0           0           0
 AtZEff=  -0.0000000  -0.0000000  -0.0000000  -0.0000000  -0.0000000  -0.0000000  -0.0000000  -0.0000000  -0.0000000  -0.0000000
 NQMom=    0.0000000   0.0000000   0.0000000   0.0000000   0.0000000   2.0440000   0.0000000   0.0000000   0.0000000   0.0000000
 NMagM=    2.7928460   0.0000000   2.7928460   2.7928460   0.0000000   0.4037610   2.7928460   0.0000000   0.0000000   0.0000000
 AtZNuc=   1.0000000   6.0000000   1.0000000   1.0000000   6.0000000   7.0000000   1.0000000   8.0000000   6.0000000   6.0000000

  Atom        71          72          73          74          75          76          77          78          79          80
 IAtWgt=          12           1          12           1           1          12           1           1          12           1
 AtmWgt=  12.0000000   1.0078250  12.0000000   1.0078250   1.0078250  12.0000000   1.0078250   1.0078250  12.0000000   1.0078250
 NucSpn=           0           1           0           1           1           0           1           1           0           1
 AtZEff=  -0.0000000  -0.0000000  -0.0000000  -0.0000000  -0.0000000  -0.0000000  -0.0000000  -0.0000000  -0.0000000  -0.0000000
 NQMom=    0.0000000   0.0000000   0.0000000   0.0000000   0.0000000   0.0000000   0.0000000   0.0000000   0.0000000   0.0000000
 NMagM=    0.0000000   2.7928460   0.0000000   2.7928460   2.7928460   0.0000000   2.7928460   2.7928460   0.0000000   2.7928460
 AtZNuc=   6.0000000   1.0000000   6.0000000   1.0000000   1.0000000   6.0000000   1.0000000   1.0000000   6.0000000   1.0000000

  Atom        81          82          83          84          85          86          87          88          89          90
 IAtWgt=           1          12          12          12          12           1          12           1          12           1
 AtmWgt=   1.0078250  12.0000000  12.0000000  12.0000000  12.0000000   1.0078250  12.0000000   1.0078250  12.0000000   1.0078250
 NucSpn=           1           0           0           0           0           1           0           1           0           1
 AtZEff=  -0.0000000  -0.0000000  -0.0000000  -0.0000000  -0.0000000  -0.0000000  -0.0000000  -0.0000000  -0.0000000  -0.0000000
 NQMom=    0.0000000   0.0000000   0.0000000   0.0000000   0.0000000   0.0000000   0.0000000   0.0000000   0.0000000   0.0000000
 NMagM=    2.7928460   0.0000000   0.0000000   0.0000000   0.0000000   2.7928460   0.0000000   2.7928460   0.0000000   2.7928460
 AtZNuc=   1.0000000   6.0000000   6.0000000   6.0000000   6.0000000   1.0000000   6.0000000   1.0000000   6.0000000   1.0000000

  Atom        91          92
 IAtWgt=           1           1
 AtmWgt=   1.0078250   1.0078250
 NucSpn=           1           1
 AtZEff=  -0.0000000  -0.0000000
 NQMom=    0.0000000   0.0000000
 NMagM=    2.7928460   2.7928460
 AtZNuc=   1.0000000   1.0000000
 Leave Link  101 at Fri Jul 12 09:46:03 2024, MaxMem=  2684354560 cpu:               6.0 elap:               0.5
 (Enter /mnt/data/applications/G16/g16/l103.exe)

 GradGradGradGradGradGradGradGradGradGradGradGradGradGradGradGradGradGrad
 Berny optimization.
 Initialization pass.
                           ----------------------------
                           !    Initial Parameters    !
                           ! (Angstroms and Degrees)  !
 --------------------------                            --------------------------
 ! Name  Definition              Value          Derivative Info.                !
 --------------------------------------------------------------------------------
 ! R1    R(1,2)                  1.3436         estimate D2E/DX2                !
 ! R2    R(1,6)                  1.3552         estimate D2E/DX2                !
 ! R3    R(1,54)                 1.4432         estimate D2E/DX2                !
 ! R4    R(2,3)                  1.3976         estimate D2E/DX2                !
 ! R5    R(2,14)                 1.0706         estimate D2E/DX2                !
 ! R6    R(3,4)                  1.4162         estimate D2E/DX2                !
 ! R7    R(3,19)                 1.5194         estimate D2E/DX2                !
 ! R8    R(4,5)                  1.3852         estimate D2E/DX2                !
 ! R9    R(4,21)                 1.7515         estimate D2E/DX2                !
 ! R10   R(5,6)                  1.3218         estimate D2E/DX2                !
 ! R11   R(5,15)                 1.0666         estimate D2E/DX2                !
 ! R12   R(6,22)                 1.3969         estimate D2E/DX2                !
 ! R13   R(7,8)                  1.3976         estimate D2E/DX2                !
 ! R14   R(7,13)                 1.3836         estimate D2E/DX2                !
 ! R15   R(7,21)                 1.7533         estimate D2E/DX2                !
 ! R16   R(8,9)                  1.3823         estimate D2E/DX2                !
 ! R17   R(8,19)                 1.5264         estimate D2E/DX2                !
 ! R18   R(9,10)                 1.0709         estimate D2E/DX2                !
 ! R19   R(9,11)                 1.3479         estimate D2E/DX2                !
 ! R20   R(11,12)                1.4039         estimate D2E/DX2                !
 ! R21   R(11,16)                1.0633         estimate D2E/DX2                !
 ! R22   R(12,13)                1.3481         estimate D2E/DX2                !
 ! R23   R(12,17)                1.0605         estimate D2E/DX2                !
 ! R24   R(13,18)                1.0727         estimate D2E/DX2                !
 ! R25   R(19,20)                1.2533         estimate D2E/DX2                !
 ! R26   R(22,55)                1.4354         estimate D2E/DX2                !
 ! R27   R(23,24)                1.559          estimate D2E/DX2                !
 ! R28   R(23,25)                1.5365         estimate D2E/DX2                !
 ! R29   R(23,35)                1.5472         estimate D2E/DX2                !
 ! R30   R(23,55)                1.519          estimate D2E/DX2                !
 ! R31   R(24,26)                1.0681         estimate D2E/DX2                !
 ! R32   R(24,28)                1.5771         estimate D2E/DX2                !
 ! R33   R(24,33)                1.0695         estimate D2E/DX2                !
 ! R34   R(25,27)                1.0721         estimate D2E/DX2                !
 ! R35   R(25,29)                1.5627         estimate D2E/DX2                !
 ! R36   R(25,34)                1.072          estimate D2E/DX2                !
 ! R37   R(28,30)                1.5371         estimate D2E/DX2                !
 ! R38   R(28,39)                1.5268         estimate D2E/DX2                !
 ! R39   R(28,47)                1.5341         estimate D2E/DX2                !
 ! R40   R(29,30)                1.5393         estimate D2E/DX2                !
 ! R41   R(29,43)                1.5497         estimate D2E/DX2                !
 ! R42   R(29,51)                1.5642         estimate D2E/DX2                !
 ! R43   R(30,31)                1.0728         estimate D2E/DX2                !
 ! R44   R(30,32)                1.0634         estimate D2E/DX2                !
 ! R45   R(35,36)                1.069          estimate D2E/DX2                !
 ! R46   R(35,37)                1.0684         estimate D2E/DX2                !
 ! R47   R(35,38)                1.0714         estimate D2E/DX2                !
 ! R48   R(39,40)                1.0672         estimate D2E/DX2                !
 ! R49   R(39,41)                1.0712         estimate D2E/DX2                !
 ! R50   R(39,42)                1.0668         estimate D2E/DX2                !
 ! R51   R(43,44)                1.0735         estimate D2E/DX2                !
 ! R52   R(43,45)                1.0711         estimate D2E/DX2                !
 ! R53   R(43,46)                1.0665         estimate D2E/DX2                !
 ! R54   R(47,48)                1.2663         estimate D2E/DX2                !
 ! R55   R(47,49)                1.3577         estimate D2E/DX2                !
 ! R56   R(48,67)                1.418          estimate D2E/DX2                !
 ! R57   R(49,50)                1.0165         estimate D2E/DX2                !
 ! R58   R(49,51)                1.5088         estimate D2E/DX2                !
 ! R59   R(50,68)                1.4479         estimate D2E/DX2                !
 ! R60   R(51,52)                1.091          estimate D2E/DX2                !
 ! R61   R(51,53)                1.0501         estimate D2E/DX2                !
 ! R62   R(54,55)                1.3056         estimate D2E/DX2                !
 ! R63   R(56,57)                1.0516         estimate D2E/DX2                !
 ! R64   R(56,58)                1.0886         estimate D2E/DX2                !
 ! R65   R(56,59)                1.5518         estimate D2E/DX2                !
 ! R66   R(56,66)                1.5151         estimate D2E/DX2                !
 ! R67   R(59,60)                1.0819         estimate D2E/DX2                !
 ! R68   R(59,61)                1.0706         estimate D2E/DX2                !
 ! R69   R(59,62)                1.5326         estimate D2E/DX2                !
 ! R70   R(62,63)                1.0771         estimate D2E/DX2                !
 ! R71   R(62,64)                1.0546         estimate D2E/DX2                !
 ! R72   R(62,69)                1.5303         estimate D2E/DX2                !
 ! R73   R(65,66)                1.331          estimate D2E/DX2                !
 ! R74   R(65,68)                1.245          estimate D2E/DX2                !
 ! R75   R(65,69)                1.5043         estimate D2E/DX2                !
 ! R76   R(66,67)                0.9941         estimate D2E/DX2                !
 ! R77   R(69,70)                1.3411         estimate D2E/DX2                !
 ! R78   R(70,71)                1.3414         estimate D2E/DX2                !
 ! R79   R(71,72)                1.0706         estimate D2E/DX2                !
 ! R80   R(71,76)                1.5308         estimate D2E/DX2                !
 ! R81   R(73,74)                1.0683         estimate D2E/DX2                !
 ! R82   R(73,75)                1.0661         estimate D2E/DX2                !
 ! R83   R(73,76)                1.5216         estimate D2E/DX2                !
 ! R84   R(73,79)                1.5429         estimate D2E/DX2                !
 ! R85   R(76,77)                1.0665         estimate D2E/DX2                !
 ! R86   R(76,78)                1.0742         estimate D2E/DX2                !
 ! R87   R(79,80)                1.0685         estimate D2E/DX2                !
 ! R88   R(79,81)                1.0683         estimate D2E/DX2                !
 ! R89   R(79,82)                1.543          estimate D2E/DX2                !
 ! R90   R(82,83)                1.396          estimate D2E/DX2                !
 ! R91   R(82,84)                1.4032         estimate D2E/DX2                !
 ! R92   R(83,85)                1.4007         estimate D2E/DX2                !
 ! R93   R(83,86)                1.0712         estimate D2E/DX2                !
 ! R94   R(84,87)                1.4019         estimate D2E/DX2                !
 ! R95   R(84,88)                1.0721         estimate D2E/DX2                !
 ! R96   R(85,89)                1.401          estimate D2E/DX2                !
 ! R97   R(85,90)                1.0725         estimate D2E/DX2                !
 ! R98   R(87,89)                1.4007         estimate D2E/DX2                !
 ! R99   R(87,91)                1.0733         estimate D2E/DX2                !
 ! R100  R(89,92)                1.0696         estimate D2E/DX2                !
 ! A1    A(2,1,6)              122.3872         estimate D2E/DX2                !
 ! A2    A(2,1,54)             129.4472         estimate D2E/DX2                !
 ! A3    A(6,1,54)             108.162          estimate D2E/DX2                !
 ! A4    A(1,2,3)              116.9772         estimate D2E/DX2                !
 ! A5    A(1,2,14)             122.5217         estimate D2E/DX2                !
 ! A6    A(3,2,14)             120.4984         estimate D2E/DX2                !
 ! A7    A(2,3,4)              119.8389         estimate D2E/DX2                !
 ! A8    A(2,3,19)             118.0689         estimate D2E/DX2                !
 ! A9    A(4,3,19)             122.0902         estimate D2E/DX2                !
 ! A10   A(3,4,5)              119.6793         estimate D2E/DX2                !
 ! A11   A(3,4,21)             122.1539         estimate D2E/DX2                !
 ! A12   A(5,4,21)             118.1441         estimate D2E/DX2                !
 ! A13   A(4,5,6)              117.8832         estimate D2E/DX2                !
 ! A14   A(4,5,15)             121.2724         estimate D2E/DX2                !
 ! A15   A(6,5,15)             120.8416         estimate D2E/DX2                !
 ! A16   A(1,6,5)              123.1313         estimate D2E/DX2                !
 ! A17   A(1,6,22)             111.893          estimate D2E/DX2                !
 ! A18   A(5,6,22)             124.9719         estimate D2E/DX2                !
 ! A19   A(8,7,13)             119.891          estimate D2E/DX2                !
 ! A20   A(8,7,21)             121.9429         estimate D2E/DX2                !
 ! A21   A(13,7,21)            118.1449         estimate D2E/DX2                !
 ! A22   A(7,8,9)              119.6027         estimate D2E/DX2                !
 ! A23   A(7,8,19)             122.9144         estimate D2E/DX2                !
 ! A24   A(9,8,19)             117.4822         estimate D2E/DX2                !
 ! A25   A(8,9,10)             119.6119         estimate D2E/DX2                !
 ! A26   A(8,9,11)             119.8563         estimate D2E/DX2                !
 ! A27   A(10,9,11)            120.5312         estimate D2E/DX2                !
 ! A28   A(9,11,12)            120.5055         estimate D2E/DX2                !
 ! A29   A(9,11,16)            119.2177         estimate D2E/DX2                !
 ! A30   A(12,11,16)           120.2768         estimate D2E/DX2                !
 ! A31   A(11,12,13)           120.4042         estimate D2E/DX2                !
 ! A32   A(11,12,17)           120.1707         estimate D2E/DX2                !
 ! A33   A(13,12,17)           119.4244         estimate D2E/DX2                !
 ! A34   A(7,13,12)            119.6895         estimate D2E/DX2                !
 ! A35   A(7,13,18)            119.7983         estimate D2E/DX2                !
 ! A36   A(12,13,18)           120.508          estimate D2E/DX2                !
 ! A37   A(3,19,8)             122.1701         estimate D2E/DX2                !
 ! A38   A(3,19,20)            118.3882         estimate D2E/DX2                !
 ! A39   A(8,19,20)            119.4409         estimate D2E/DX2                !
 ! A40   A(4,21,7)             108.375          estimate D2E/DX2                !
 ! A41   A(6,22,55)            100.1687         estimate D2E/DX2                !
 ! A42   A(24,23,25)           109.7959         estimate D2E/DX2                !
 ! A43   A(24,23,35)           108.3493         estimate D2E/DX2                !
 ! A44   A(24,23,55)           111.2293         estimate D2E/DX2                !
 ! A45   A(25,23,35)           108.3828         estimate D2E/DX2                !
 ! A46   A(25,23,55)           112.69           estimate D2E/DX2                !
 ! A47   A(35,23,55)           106.2054         estimate D2E/DX2                !
 ! A48   A(23,24,26)           107.7172         estimate D2E/DX2                !
 ! A49   A(23,24,28)           114.0687         estimate D2E/DX2                !
 ! A50   A(23,24,33)           107.6584         estimate D2E/DX2                !
 ! A51   A(26,24,28)           110.3258         estimate D2E/DX2                !
 ! A52   A(26,24,33)           110.3972         estimate D2E/DX2                !
 ! A53   A(28,24,33)           106.6386         estimate D2E/DX2                !
 ! A54   A(23,25,27)           108.55           estimate D2E/DX2                !
 ! A55   A(23,25,29)           114.6308         estimate D2E/DX2                !
 ! A56   A(23,25,34)           107.4323         estimate D2E/DX2                !
 ! A57   A(27,25,29)           109.87           estimate D2E/DX2                !
 ! A58   A(27,25,34)           109.8952         estimate D2E/DX2                !
 ! A59   A(29,25,34)           106.368          estimate D2E/DX2                !
 ! A60   A(24,28,30)           107.7579         estimate D2E/DX2                !
 ! A61   A(24,28,39)           107.7118         estimate D2E/DX2                !
 ! A62   A(24,28,47)           113.1716         estimate D2E/DX2                !
 ! A63   A(30,28,39)           110.8111         estimate D2E/DX2                !
 ! A64   A(30,28,47)           108.893          estimate D2E/DX2                !
 ! A65   A(39,28,47)           108.5075         estimate D2E/DX2                !
 ! A66   A(25,29,30)           108.508          estimate D2E/DX2                !
 ! A67   A(25,29,43)           106.1138         estimate D2E/DX2                !
 ! A68   A(25,29,51)           117.2095         estimate D2E/DX2                !
 ! A69   A(30,29,43)           110.0281         estimate D2E/DX2                !
 ! A70   A(30,29,51)           107.518          estimate D2E/DX2                !
 ! A71   A(43,29,51)           107.3622         estimate D2E/DX2                !
 ! A72   A(28,30,29)           109.4369         estimate D2E/DX2                !
 ! A73   A(28,30,31)           109.4632         estimate D2E/DX2                !
 ! A74   A(28,30,32)           109.6024         estimate D2E/DX2                !
 ! A75   A(29,30,31)           109.5461         estimate D2E/DX2                !
 ! A76   A(29,30,32)           109.1214         estimate D2E/DX2                !
 ! A77   A(31,30,32)           109.6568         estimate D2E/DX2                !
 ! A78   A(23,35,36)           110.1378         estimate D2E/DX2                !
 ! A79   A(23,35,37)           109.3205         estimate D2E/DX2                !
 ! A80   A(23,35,38)           109.3173         estimate D2E/DX2                !
 ! A81   A(36,35,37)           109.3893         estimate D2E/DX2                !
 ! A82   A(36,35,38)           109.24           estimate D2E/DX2                !
 ! A83   A(37,35,38)           109.4208         estimate D2E/DX2                !
 ! A84   A(28,39,40)           109.1025         estimate D2E/DX2                !
 ! A85   A(28,39,41)           109.3775         estimate D2E/DX2                !
 ! A86   A(28,39,42)           109.4489         estimate D2E/DX2                !
 ! A87   A(40,39,41)           109.4481         estimate D2E/DX2                !
 ! A88   A(40,39,42)           109.8615         estimate D2E/DX2                !
 ! A89   A(41,39,42)           109.587          estimate D2E/DX2                !
 ! A90   A(29,43,44)           109.6424         estimate D2E/DX2                !
 ! A91   A(29,43,45)           109.0171         estimate D2E/DX2                !
 ! A92   A(29,43,46)           110.1392         estimate D2E/DX2                !
 ! A93   A(44,43,45)           109.1761         estimate D2E/DX2                !
 ! A94   A(44,43,46)           109.297          estimate D2E/DX2                !
 ! A95   A(45,43,46)           109.5517         estimate D2E/DX2                !
 ! A96   A(28,47,48)           117.599          estimate D2E/DX2                !
 ! A97   A(28,47,49)           121.1013         estimate D2E/DX2                !
 ! A98   A(48,47,49)           121.2971         estimate D2E/DX2                !
 ! A99   A(47,48,67)           118.8957         estimate D2E/DX2                !
 ! A100  A(47,49,50)           117.4697         estimate D2E/DX2                !
 ! A101  A(47,49,51)           122.3434         estimate D2E/DX2                !
 ! A102  A(50,49,51)           120.1645         estimate D2E/DX2                !
 ! A103  A(29,51,49)           114.922          estimate D2E/DX2                !
 ! A104  A(29,51,52)           108.6464         estimate D2E/DX2                !
 ! A105  A(29,51,53)           106.5961         estimate D2E/DX2                !
 ! A106  A(49,51,52)           111.4402         estimate D2E/DX2                !
 ! A107  A(49,51,53)           104.8579         estimate D2E/DX2                !
 ! A108  A(52,51,53)           110.1695         estimate D2E/DX2                !
 ! A109  A(1,54,55)            103.5739         estimate D2E/DX2                !
 ! A110  A(22,55,23)           118.3111         estimate D2E/DX2                !
 ! A111  A(22,55,54)           116.1666         estimate D2E/DX2                !
 ! A112  A(23,55,54)           125.3468         estimate D2E/DX2                !
 ! A113  A(57,56,58)           109.5389         estimate D2E/DX2                !
 ! A114  A(57,56,59)           107.0239         estimate D2E/DX2                !
 ! A115  A(57,56,66)           107.6362         estimate D2E/DX2                !
 ! A116  A(58,56,59)           108.233          estimate D2E/DX2                !
 ! A117  A(58,56,66)           110.3517         estimate D2E/DX2                !
 ! A118  A(59,56,66)           113.9495         estimate D2E/DX2                !
 ! A119  A(56,59,60)           108.633          estimate D2E/DX2                !
 ! A120  A(56,59,61)           111.4497         estimate D2E/DX2                !
 ! A121  A(56,59,62)           108.2244         estimate D2E/DX2                !
 ! A122  A(60,59,61)           108.4228         estimate D2E/DX2                !
 ! A123  A(60,59,62)           110.8399         estimate D2E/DX2                !
 ! A124  A(61,59,62)           109.281          estimate D2E/DX2                !
 ! A125  A(59,62,63)           108.4964         estimate D2E/DX2                !
 ! A126  A(59,62,64)           111.4219         estimate D2E/DX2                !
 ! A127  A(59,62,69)           107.7599         estimate D2E/DX2                !
 ! A128  A(63,62,64)           110.2983         estimate D2E/DX2                !
 ! A129  A(63,62,69)           110.4387         estimate D2E/DX2                !
 ! A130  A(64,62,69)           108.3986         estimate D2E/DX2                !
 ! A131  A(66,65,68)           120.9234         estimate D2E/DX2                !
 ! A132  A(66,65,69)           119.7896         estimate D2E/DX2                !
 ! A133  A(68,65,69)           119.2774         estimate D2E/DX2                !
 ! A134  A(56,66,65)           122.1846         estimate D2E/DX2                !
 ! A135  A(56,66,67)           119.7605         estimate D2E/DX2                !
 ! A136  A(65,66,67)           117.9914         estimate D2E/DX2                !
 ! A137  A(50,68,65)           120.5036         estimate D2E/DX2                !
 ! A138  A(62,69,65)           118.6519         estimate D2E/DX2                !
 ! A139  A(62,69,70)           121.7698         estimate D2E/DX2                !
 ! A140  A(65,69,70)           119.5678         estimate D2E/DX2                !
 ! A141  A(70,71,72)           118.9461         estimate D2E/DX2                !
 ! A142  A(70,71,76)           120.986          estimate D2E/DX2                !
 ! A143  A(72,71,76)           119.9972         estimate D2E/DX2                !
 ! A144  A(74,73,75)           109.7197         estimate D2E/DX2                !
 ! A145  A(74,73,76)           110.4281         estimate D2E/DX2                !
 ! A146  A(74,73,79)           109.7589         estimate D2E/DX2                !
 ! A147  A(75,73,76)           108.7936         estimate D2E/DX2                !
 ! A148  A(75,73,79)           109.1065         estimate D2E/DX2                !
 ! A149  A(76,73,79)           109.0067         estimate D2E/DX2                !
 ! A150  A(71,76,73)           111.9368         estimate D2E/DX2                !
 ! A151  A(71,76,77)           108.4012         estimate D2E/DX2                !
 ! A152  A(71,76,78)           108.3976         estimate D2E/DX2                !
 ! A153  A(73,76,77)           107.4585         estimate D2E/DX2                !
 ! A154  A(73,76,78)           111.021          estimate D2E/DX2                !
 ! A155  A(77,76,78)           109.5742         estimate D2E/DX2                !
 ! A156  A(73,79,80)           109.6772         estimate D2E/DX2                !
 ! A157  A(73,79,81)           109.4907         estimate D2E/DX2                !
 ! A158  A(73,79,82)           109.3154         estimate D2E/DX2                !
 ! A159  A(80,79,81)           109.7077         estimate D2E/DX2                !
 ! A160  A(80,79,82)           109.1248         estimate D2E/DX2                !
 ! A161  A(81,79,82)           109.5102         estimate D2E/DX2                !
 ! A162  A(79,82,83)           119.8785         estimate D2E/DX2                !
 ! A163  A(79,82,84)           120.0289         estimate D2E/DX2                !
 ! A164  A(83,82,84)           120.0924         estimate D2E/DX2                !
 ! A165  A(82,83,85)           120.0306         estimate D2E/DX2                !
 ! A166  A(82,83,86)           119.9434         estimate D2E/DX2                !
 ! A167  A(85,83,86)           120.025          estimate D2E/DX2                !
 ! A168  A(82,84,87)           119.89           estimate D2E/DX2                !
 ! A169  A(82,84,88)           120.211          estimate D2E/DX2                !
 ! A170  A(87,84,88)           119.8987         estimate D2E/DX2                !
 ! A171  A(83,85,89)           120.0544         estimate D2E/DX2                !
 ! A172  A(83,85,90)           119.9742         estimate D2E/DX2                !
 ! A173  A(89,85,90)           119.971          estimate D2E/DX2                !
 ! A174  A(84,87,89)           119.9773         estimate D2E/DX2                !
 ! A175  A(84,87,91)           120.0534         estimate D2E/DX2                !
 ! A176  A(89,87,91)           119.9688         estimate D2E/DX2                !
 ! A177  A(85,89,87)           119.9482         estimate D2E/DX2                !
 ! A178  A(85,89,92)           120.0213         estimate D2E/DX2                !
 ! A179  A(87,89,92)           120.0301         estimate D2E/DX2                !
 ! A180  L(49,50,68,1,-1)      180.1579         estimate D2E/DX2                !
 ! A181  L(48,67,66,1,-1)      180.0003         estimate D2E/DX2                !
 ! A182  L(69,70,71,1,-1)      179.1689         estimate D2E/DX2                !
 ! A183  L(49,50,68,1,-2)      183.6366         estimate D2E/DX2                !
 ! A184  L(48,67,66,1,-2)      180.0003         estimate D2E/DX2                !
 ! A185  L(69,70,71,1,-2)      186.4644         estimate D2E/DX2                !
 ! D1    D(6,1,2,3)             -2.7801         estimate D2E/DX2                !
 ! D2    D(6,1,2,14)           177.8179         estimate D2E/DX2                !
 ! D3    D(54,1,2,3)           176.444          estimate D2E/DX2                !
 ! D4    D(54,1,2,14)           -2.9581         estimate D2E/DX2                !
 ! D5    D(2,1,6,5)              1.9701         estimate D2E/DX2                !
 ! D6    D(2,1,6,22)          -178.7063         estimate D2E/DX2                !
 ! D7    D(54,1,6,5)          -177.3993         estimate D2E/DX2                !
 ! D8    D(54,1,6,22)            1.9243         estimate D2E/DX2                !
 ! D9    D(2,1,54,55)          178.8821         estimate D2E/DX2                !
 ! D10   D(6,1,54,55)           -1.8075         estimate D2E/DX2                !
 ! D11   D(1,2,3,4)              0.7176         estimate D2E/DX2                !
 ! D12   D(1,2,3,19)          -178.7832         estimate D2E/DX2                !
 ! D13   D(14,2,3,4)          -179.8675         estimate D2E/DX2                !
 ! D14   D(14,2,3,19)            0.6317         estimate D2E/DX2                !
 ! D15   D(2,3,4,5)              2.1668         estimate D2E/DX2                !
 ! D16   D(2,3,4,21)          -176.0662         estimate D2E/DX2                !
 ! D17   D(19,3,4,5)          -178.3531         estimate D2E/DX2                !
 ! D18   D(19,3,4,21)            3.4138         estimate D2E/DX2                !
 ! D19   D(2,3,19,8)          -179.9985         estimate D2E/DX2                !
 ! D20   D(2,3,19,20)            0.3332         estimate D2E/DX2                !
 ! D21   D(4,3,19,8)             0.5126         estimate D2E/DX2                !
 ! D22   D(4,3,19,20)         -179.1557         estimate D2E/DX2                !
 ! D23   D(3,4,5,6)             -3.0313         estimate D2E/DX2                !
 ! D24   D(3,4,5,15)           177.5762         estimate D2E/DX2                !
 ! D25   D(21,4,5,6)           175.2722         estimate D2E/DX2                !
 ! D26   D(21,4,5,15)           -4.1203         estimate D2E/DX2                !
 ! D27   D(3,4,21,7)            -6.3302         estimate D2E/DX2                !
 ! D28   D(5,4,21,7)           175.4108         estimate D2E/DX2                !
 ! D29   D(4,5,6,1)              1.0686         estimate D2E/DX2                !
 ! D30   D(4,5,6,22)          -178.1655         estimate D2E/DX2                !
 ! D31   D(15,5,6,1)          -179.5362         estimate D2E/DX2                !
 ! D32   D(15,5,6,22)            1.2298         estimate D2E/DX2                !
 ! D33   D(1,6,22,55)           -1.1799         estimate D2E/DX2                !
 ! D34   D(5,6,22,55)          178.1289         estimate D2E/DX2                !
 ! D35   D(13,7,8,9)            -2.2073         estimate D2E/DX2                !
 ! D36   D(13,7,8,19)          178.1037         estimate D2E/DX2                !
 ! D37   D(21,7,8,9)           176.0849         estimate D2E/DX2                !
 ! D38   D(21,7,8,19)           -3.604          estimate D2E/DX2                !
 ! D39   D(8,7,13,12)            2.7404         estimate D2E/DX2                !
 ! D40   D(8,7,13,18)         -178.0068         estimate D2E/DX2                !
 ! D41   D(21,7,13,12)        -175.6162         estimate D2E/DX2                !
 ! D42   D(21,7,13,18)           3.6366         estimate D2E/DX2                !
 ! D43   D(8,7,21,4)             6.4163         estimate D2E/DX2                !
 ! D44   D(13,7,21,4)         -175.2628         estimate D2E/DX2                !
 ! D45   D(7,8,9,10)          -179.2277         estimate D2E/DX2                !
 ! D46   D(7,8,9,11)             0.5139         estimate D2E/DX2                !
 ! D47   D(19,8,9,10)            0.478          estimate D2E/DX2                !
 ! D48   D(19,8,9,11)         -179.7804         estimate D2E/DX2                !
 ! D49   D(7,8,19,3)            -0.4072         estimate D2E/DX2                !
 ! D50   D(7,8,19,20)          179.2576         estimate D2E/DX2                !
 ! D51   D(9,8,19,3)           179.8976         estimate D2E/DX2                !
 ! D52   D(9,8,19,20)           -0.4376         estimate D2E/DX2                !
 ! D53   D(8,9,11,12)            0.6429         estimate D2E/DX2                !
 ! D54   D(8,9,11,16)         -179.4076         estimate D2E/DX2                !
 ! D55   D(10,9,11,12)        -179.6179         estimate D2E/DX2                !
 ! D56   D(10,9,11,16)           0.3316         estimate D2E/DX2                !
 ! D57   D(9,11,12,13)          -0.1074         estimate D2E/DX2                !
 ! D58   D(9,11,12,17)        -179.8119         estimate D2E/DX2                !
 ! D59   D(16,11,12,13)        179.9437         estimate D2E/DX2                !
 ! D60   D(16,11,12,17)          0.2392         estimate D2E/DX2                !
 ! D61   D(11,12,13,7)          -1.5938         estimate D2E/DX2                !
 ! D62   D(11,12,13,18)        179.1588         estimate D2E/DX2                !
 ! D63   D(17,12,13,7)         178.1129         estimate D2E/DX2                !
 ! D64   D(17,12,13,18)         -1.1345         estimate D2E/DX2                !
 ! D65   D(6,22,55,23)         175.3948         estimate D2E/DX2                !
 ! D66   D(6,22,55,54)          -0.0502         estimate D2E/DX2                !
 ! D67   D(25,23,24,26)       -171.8732         estimate D2E/DX2                !
 ! D68   D(25,23,24,28)        -49.0484         estimate D2E/DX2                !
 ! D69   D(25,23,24,33)         69.0702         estimate D2E/DX2                !
 ! D70   D(35,23,24,26)         69.9294         estimate D2E/DX2                !
 ! D71   D(35,23,24,28)       -167.2457         estimate D2E/DX2                !
 ! D72   D(35,23,24,33)        -49.1271         estimate D2E/DX2                !
 ! D73   D(55,23,24,26)        -46.4478         estimate D2E/DX2                !
 ! D74   D(55,23,24,28)         76.3771         estimate D2E/DX2                !
 ! D75   D(55,23,24,33)       -165.5044         estimate D2E/DX2                !
 ! D76   D(24,23,25,27)        172.0922         estimate D2E/DX2                !
 ! D77   D(24,23,25,29)         48.8451         estimate D2E/DX2                !
 ! D78   D(24,23,25,34)        -69.118          estimate D2E/DX2                !
 ! D79   D(35,23,25,27)        -69.7313         estimate D2E/DX2                !
 ! D80   D(35,23,25,29)        167.0216         estimate D2E/DX2                !
 ! D81   D(35,23,25,34)         49.0585         estimate D2E/DX2                !
 ! D82   D(55,23,25,27)         47.5078         estimate D2E/DX2                !
 ! D83   D(55,23,25,29)        -75.7393         estimate D2E/DX2                !
 ! D84   D(55,23,25,34)        166.2976         estimate D2E/DX2                !
 ! D85   D(24,23,35,36)        178.6418         estimate D2E/DX2                !
 ! D86   D(24,23,35,37)        -61.1419         estimate D2E/DX2                !
 ! D87   D(24,23,35,38)         58.6113         estimate D2E/DX2                !
 ! D88   D(25,23,35,36)         59.5492         estimate D2E/DX2                !
 ! D89   D(25,23,35,37)        179.7655         estimate D2E/DX2                !
 ! D90   D(25,23,35,38)        -60.4814         estimate D2E/DX2                !
 ! D91   D(55,23,35,36)        -61.7757         estimate D2E/DX2                !
 ! D92   D(55,23,35,37)         58.4406         estimate D2E/DX2                !
 ! D93   D(55,23,35,38)        178.1938         estimate D2E/DX2                !
 ! D94   D(24,23,55,22)         33.6131         estimate D2E/DX2                !
 ! D95   D(24,23,55,54)       -151.4001         estimate D2E/DX2                !
 ! D96   D(25,23,55,22)        157.4081         estimate D2E/DX2                !
 ! D97   D(25,23,55,54)        -27.6052         estimate D2E/DX2                !
 ! D98   D(35,23,55,22)        -84.0712         estimate D2E/DX2                !
 ! D99   D(35,23,55,54)         90.9155         estimate D2E/DX2                !
 ! D100  D(23,24,28,30)         56.8649         estimate D2E/DX2                !
 ! D101  D(23,24,28,39)        176.4625         estimate D2E/DX2                !
 ! D102  D(23,24,28,47)        -63.5933         estimate D2E/DX2                !
 ! D103  D(26,24,28,30)        178.2564         estimate D2E/DX2                !
 ! D104  D(26,24,28,39)        -62.146          estimate D2E/DX2                !
 ! D105  D(26,24,28,47)         57.7982         estimate D2E/DX2                !
 ! D106  D(33,24,28,30)        -61.8354         estimate D2E/DX2                !
 ! D107  D(33,24,28,39)         57.7622         estimate D2E/DX2                !
 ! D108  D(33,24,28,47)        177.7064         estimate D2E/DX2                !
 ! D109  D(23,25,29,30)        -56.6132         estimate D2E/DX2                !
 ! D110  D(23,25,29,43)       -174.8189         estimate D2E/DX2                !
 ! D111  D(23,25,29,51)         65.3267         estimate D2E/DX2                !
 ! D112  D(27,25,29,30)       -179.1491         estimate D2E/DX2                !
 ! D113  D(27,25,29,43)         62.6452         estimate D2E/DX2                !
 ! D114  D(27,25,29,51)        -57.2092         estimate D2E/DX2                !
 ! D115  D(34,25,29,30)         61.9514         estimate D2E/DX2                !
 ! D116  D(34,25,29,43)        -56.2543         estimate D2E/DX2                !
 ! D117  D(34,25,29,51)       -176.1087         estimate D2E/DX2                !
 ! D118  D(24,28,30,29)        -63.2353         estimate D2E/DX2                !
 ! D119  D(24,28,30,31)         56.8305         estimate D2E/DX2                !
 ! D120  D(24,28,30,32)        177.1338         estimate D2E/DX2                !
 ! D121  D(39,28,30,29)        179.1534         estimate D2E/DX2                !
 ! D122  D(39,28,30,31)        -60.7808         estimate D2E/DX2                !
 ! D123  D(39,28,30,32)         59.5225         estimate D2E/DX2                !
 ! D124  D(47,28,30,29)         59.8784         estimate D2E/DX2                !
 ! D125  D(47,28,30,31)        179.9443         estimate D2E/DX2                !
 ! D126  D(47,28,30,32)        -59.7525         estimate D2E/DX2                !
 ! D127  D(24,28,39,40)       -178.0672         estimate D2E/DX2                !
 ! D128  D(24,28,39,41)        -58.3762         estimate D2E/DX2                !
 ! D129  D(24,28,39,42)         61.6945         estimate D2E/DX2                !
 ! D130  D(30,28,39,40)        -60.4277         estimate D2E/DX2                !
 ! D131  D(30,28,39,41)         59.2633         estimate D2E/DX2                !
 ! D132  D(30,28,39,42)        179.334          estimate D2E/DX2                !
 ! D133  D(47,28,39,40)         59.079          estimate D2E/DX2                !
 ! D134  D(47,28,39,41)        178.77           estimate D2E/DX2                !
 ! D135  D(47,28,39,42)        -61.1593         estimate D2E/DX2                !
 ! D136  D(24,28,47,48)        -92.9249         estimate D2E/DX2                !
 ! D137  D(24,28,47,49)         86.4948         estimate D2E/DX2                !
 ! D138  D(30,28,47,48)        147.2647         estimate D2E/DX2                !
 ! D139  D(30,28,47,49)        -33.3157         estimate D2E/DX2                !
 ! D140  D(39,28,47,48)         26.5634         estimate D2E/DX2                !
 ! D141  D(39,28,47,49)       -154.0169         estimate D2E/DX2                !
 ! D142  D(25,29,30,28)         63.2047         estimate D2E/DX2                !
 ! D143  D(25,29,30,31)        -56.8103         estimate D2E/DX2                !
 ! D144  D(25,29,30,32)       -176.869          estimate D2E/DX2                !
 ! D145  D(43,29,30,28)        178.8978         estimate D2E/DX2                !
 ! D146  D(43,29,30,31)         58.8828         estimate D2E/DX2                !
 ! D147  D(43,29,30,32)        -61.1759         estimate D2E/DX2                !
 ! D148  D(51,29,30,28)        -64.4786         estimate D2E/DX2                !
 ! D149  D(51,29,30,31)        175.5064         estimate D2E/DX2                !
 ! D150  D(51,29,30,32)         55.4477         estimate D2E/DX2                !
 ! D151  D(25,29,43,44)         55.6512         estimate D2E/DX2                !
 ! D152  D(25,29,43,45)        175.118          estimate D2E/DX2                !
 ! D153  D(25,29,43,46)        -64.6552         estimate D2E/DX2                !
 ! D154  D(30,29,43,44)        -61.5424         estimate D2E/DX2                !
 ! D155  D(30,29,43,45)         57.9244         estimate D2E/DX2                !
 ! D156  D(30,29,43,46)        178.1512         estimate D2E/DX2                !
 ! D157  D(51,29,43,44)       -178.2634         estimate D2E/DX2                !
 ! D158  D(51,29,43,45)        -58.7967         estimate D2E/DX2                !
 ! D159  D(51,29,43,46)         61.4302         estimate D2E/DX2                !
 ! D160  D(25,29,51,49)        -80.9614         estimate D2E/DX2                !
 ! D161  D(25,29,51,52)         44.6429         estimate D2E/DX2                !
 ! D162  D(25,29,51,53)        163.347          estimate D2E/DX2                !
 ! D163  D(30,29,51,49)         41.4898         estimate D2E/DX2                !
 ! D164  D(30,29,51,52)        167.094          estimate D2E/DX2                !
 ! D165  D(30,29,51,53)        -74.2018         estimate D2E/DX2                !
 ! D166  D(43,29,51,49)        159.8472         estimate D2E/DX2                !
 ! D167  D(43,29,51,52)        -74.5485         estimate D2E/DX2                !
 ! D168  D(43,29,51,53)         44.1556         estimate D2E/DX2                !
 ! D169  D(28,47,48,67)        156.8598         estimate D2E/DX2                !
 ! D170  D(49,47,48,67)        -22.5587         estimate D2E/DX2                !
 ! D171  D(28,47,49,50)       -169.6506         estimate D2E/DX2                !
 ! D172  D(28,47,49,51)         12.0697         estimate D2E/DX2                !
 ! D173  D(48,47,49,50)          9.7475         estimate D2E/DX2                !
 ! D174  D(48,47,49,51)       -168.5321         estimate D2E/DX2                !
 ! D175  D(47,48,66,56)       -158.4849         estimate D2E/DX2                !
 ! D176  D(47,48,66,65)         18.6813         estimate D2E/DX2                !
 ! D177  D(47,49,68,65)         17.3301         estimate D2E/DX2                !
 ! D178  D(51,49,68,65)       -164.1228         estimate D2E/DX2                !
 ! D179  D(47,49,51,29)        -16.3285         estimate D2E/DX2                !
 ! D180  D(47,49,51,52)       -140.4699         estimate D2E/DX2                !
 ! D181  D(47,49,51,53)        100.3584         estimate D2E/DX2                !
 ! D182  D(50,49,51,29)        165.437          estimate D2E/DX2                !
 ! D183  D(50,49,51,52)         41.2956         estimate D2E/DX2                !
 ! D184  D(50,49,51,53)        -77.8761         estimate D2E/DX2                !
 ! D185  D(1,54,55,22)           1.1325         estimate D2E/DX2                !
 ! D186  D(1,54,55,23)        -173.9502         estimate D2E/DX2                !
 ! D187  D(57,56,59,60)        -51.8035         estimate D2E/DX2                !
 ! D188  D(57,56,59,61)       -171.1968         estimate D2E/DX2                !
 ! D189  D(57,56,59,62)         68.613          estimate D2E/DX2                !
 ! D190  D(58,56,59,60)         66.1741         estimate D2E/DX2                !
 ! D191  D(58,56,59,61)        -53.2192         estimate D2E/DX2                !
 ! D192  D(58,56,59,62)       -173.4095         estimate D2E/DX2                !
 ! D193  D(66,56,59,60)       -170.6658         estimate D2E/DX2                !
 ! D194  D(66,56,59,61)         69.9409         estimate D2E/DX2                !
 ! D195  D(66,56,59,62)        -50.2493         estimate D2E/DX2                !
 ! D196  D(57,56,66,65)       -102.6482         estimate D2E/DX2                !
 ! D197  D(57,56,66,67)         74.395          estimate D2E/DX2                !
 ! D198  D(58,56,66,65)        137.8644         estimate D2E/DX2                !
 ! D199  D(58,56,66,67)        -45.0924         estimate D2E/DX2                !
 ! D200  D(59,56,66,65)         15.8649         estimate D2E/DX2                !
 ! D201  D(59,56,66,67)       -167.0919         estimate D2E/DX2                !
 ! D202  D(56,59,62,63)       -179.9722         estimate D2E/DX2                !
 ! D203  D(56,59,62,64)        -58.358          estimate D2E/DX2                !
 ! D204  D(56,59,62,69)         60.4371         estimate D2E/DX2                !
 ! D205  D(60,59,62,63)        -60.9427         estimate D2E/DX2                !
 ! D206  D(60,59,62,64)         60.6715         estimate D2E/DX2                !
 ! D207  D(60,59,62,69)        179.4666         estimate D2E/DX2                !
 ! D208  D(61,59,62,63)         58.4904         estimate D2E/DX2                !
 ! D209  D(61,59,62,64)       -179.8954         estimate D2E/DX2                !
 ! D210  D(61,59,62,69)        -61.1003         estimate D2E/DX2                !
 ! D211  D(59,62,69,65)        -40.8592         estimate D2E/DX2                !
 ! D212  D(59,62,69,70)        140.3281         estimate D2E/DX2                !
 ! D213  D(63,62,69,65)       -159.2096         estimate D2E/DX2                !
 ! D214  D(63,62,69,70)         21.9776         estimate D2E/DX2                !
 ! D215  D(64,62,69,65)         79.8519         estimate D2E/DX2                !
 ! D216  D(64,62,69,70)        -98.9609         estimate D2E/DX2                !
 ! D217  D(68,65,66,56)       -174.1447         estimate D2E/DX2                !
 ! D218  D(68,65,66,67)          8.7621         estimate D2E/DX2                !
 ! D219  D(69,65,66,56)          6.9915         estimate D2E/DX2                !
 ! D220  D(69,65,66,67)       -170.1017         estimate D2E/DX2                !
 ! D221  D(66,65,68,50)        -21.6274         estimate D2E/DX2                !
 ! D222  D(69,65,68,50)        157.2422         estimate D2E/DX2                !
 ! D223  D(66,65,69,62)          6.4058         estimate D2E/DX2                !
 ! D224  D(66,65,69,70)       -174.7547         estimate D2E/DX2                !
 ! D225  D(68,65,69,62)       -172.4768         estimate D2E/DX2                !
 ! D226  D(68,65,69,70)          6.3627         estimate D2E/DX2                !
 ! D227  D(62,69,71,72)         79.2638         estimate D2E/DX2                !
 ! D228  D(62,69,71,76)        -95.0597         estimate D2E/DX2                !
 ! D229  D(65,69,71,72)        -97.3814         estimate D2E/DX2                !
 ! D230  D(65,69,71,76)         88.2952         estimate D2E/DX2                !
 ! D231  D(70,71,76,73)       -108.7035         estimate D2E/DX2                !
 ! D232  D(70,71,76,77)        132.9472         estimate D2E/DX2                !
 ! D233  D(70,71,76,78)         14.082          estimate D2E/DX2                !
 ! D234  D(72,71,76,73)         74.3846         estimate D2E/DX2                !
 ! D235  D(72,71,76,77)        -43.9647         estimate D2E/DX2                !
 ! D236  D(72,71,76,78)       -162.8299         estimate D2E/DX2                !
 ! D237  D(74,73,76,71)         61.9017         estimate D2E/DX2                !
 ! D238  D(74,73,76,77)       -179.1902         estimate D2E/DX2                !
 ! D239  D(74,73,76,78)        -59.3816         estimate D2E/DX2                !
 ! D240  D(75,73,76,71)        -58.5684         estimate D2E/DX2                !
 ! D241  D(75,73,76,77)         60.3397         estimate D2E/DX2                !
 ! D242  D(75,73,76,78)       -179.8517         estimate D2E/DX2                !
 ! D243  D(79,73,76,71)       -177.4446         estimate D2E/DX2                !
 ! D244  D(79,73,76,77)        -58.5364         estimate D2E/DX2                !
 ! D245  D(79,73,76,78)         61.2721         estimate D2E/DX2                !
 ! D246  D(74,73,79,80)        178.9573         estimate D2E/DX2                !
 ! D247  D(74,73,79,81)         58.528          estimate D2E/DX2                !
 ! D248  D(74,73,79,82)        -61.4364         estimate D2E/DX2                !
 ! D249  D(75,73,79,80)        -60.7868         estimate D2E/DX2                !
 ! D250  D(75,73,79,81)        178.784          estimate D2E/DX2                !
 ! D251  D(75,73,79,82)         58.8195         estimate D2E/DX2                !
 ! D252  D(76,73,79,80)         57.8938         estimate D2E/DX2                !
 ! D253  D(76,73,79,81)        -62.5355         estimate D2E/DX2                !
 ! D254  D(76,73,79,82)        177.5001         estimate D2E/DX2                !
 ! D255  D(73,79,82,83)         88.2312         estimate D2E/DX2                !
 ! D256  D(73,79,82,84)        -91.8959         estimate D2E/DX2                !
 ! D257  D(80,79,82,83)       -151.8225         estimate D2E/DX2                !
 ! D258  D(80,79,82,84)         28.0504         estimate D2E/DX2                !
 ! D259  D(81,79,82,83)        -31.7212         estimate D2E/DX2                !
 ! D260  D(81,79,82,84)        148.1517         estimate D2E/DX2                !
 ! D261  D(79,82,83,85)       -179.111          estimate D2E/DX2                !
 ! D262  D(79,82,83,86)          0.5235         estimate D2E/DX2                !
 ! D263  D(84,82,83,85)          1.0162         estimate D2E/DX2                !
 ! D264  D(84,82,83,86)       -179.3493         estimate D2E/DX2                !
 ! D265  D(79,82,84,87)        179.2414         estimate D2E/DX2                !
 ! D266  D(79,82,84,88)         -0.5503         estimate D2E/DX2                !
 ! D267  D(83,82,84,87)         -0.886          estimate D2E/DX2                !
 ! D268  D(83,82,84,88)        179.3224         estimate D2E/DX2                !
 ! D269  D(82,83,85,89)         -0.6124         estimate D2E/DX2                !
 ! D270  D(82,83,85,90)        179.6066         estimate D2E/DX2                !
 ! D271  D(86,83,85,89)        179.7535         estimate D2E/DX2                !
 ! D272  D(86,83,85,90)         -0.0276         estimate D2E/DX2                !
 ! D273  D(82,84,87,89)          0.3513         estimate D2E/DX2                !
 ! D274  D(82,84,87,91)       -179.8996         estimate D2E/DX2                !
 ! D275  D(88,84,87,89)       -179.8563         estimate D2E/DX2                !
 ! D276  D(88,84,87,91)         -0.1073         estimate D2E/DX2                !
 ! D277  D(83,85,89,87)          0.0782         estimate D2E/DX2                !
 ! D278  D(83,85,89,92)        179.8541         estimate D2E/DX2                !
 ! D279  D(90,85,89,87)        179.8593         estimate D2E/DX2                !
 ! D280  D(90,85,89,92)         -0.3649         estimate D2E/DX2                !
 ! D281  D(84,87,89,85)          0.0507         estimate D2E/DX2                !
 ! D282  D(84,87,89,92)       -179.7251         estimate D2E/DX2                !
 ! D283  D(91,87,89,85)       -179.6986         estimate D2E/DX2                !
 ! D284  D(91,87,89,92)          0.5256         estimate D2E/DX2                !
 --------------------------------------------------------------------------------
 Trust Radius=3.00D-01 FncErr=1.00D-07 GrdErr=1.00D-06 EigMax=2.50D+02 EigMin=1.00D-04
 Number of steps in this run=    300 maximum allowed number of steps=    552.
 GradGradGradGradGradGradGradGradGradGradGradGradGradGradGradGradGradGrad

 Leave Link  103 at Fri Jul 12 09:46:03 2024, MaxMem=  2684354560 cpu:               0.3 elap:               0.0
 (Enter /mnt/data/applications/G16/g16/l202.exe)
 Symmetry turned off by external request.
 Stoichiometry    C41H43N3O4S
 Framework group  C1[X(C41H43N3O4S)]
 Deg. of freedom   270
 Full point group                 C1      NOp   1
                          Input orientation:                          
 ---------------------------------------------------------------------
 Center     Atomic      Atomic             Coordinates (Angstroms)
 Number     Number       Type             X           Y           Z
 ---------------------------------------------------------------------
      1          6           0       -1.433209    1.425030    0.083147
      2          6           0       -1.296813    2.676817   -0.385616
      3          6           0       -0.016029    3.068146   -0.785121
      4          6           0        1.059905    2.151412   -0.698670
      5          6           0        0.825719    0.858363   -0.260656
      6          6           0       -0.401009    0.547706    0.121333
      7          6           0        2.690864    4.236552   -1.733102
      8          6           0        1.529229    5.013452   -1.752784
      9          6           0        1.589364    6.320441   -2.198680
     10          1           0        0.701826    6.919746   -2.202146
     11          6           0        2.762860    6.832295   -2.620206
     12          6           0        3.924350    6.043760   -2.622947
     13          6           0        3.881124    4.763961   -2.201558
     14          1           0       -2.118236    3.360604   -0.448459
     15          1           0        1.609811    0.136305   -0.222046
     16          1           0        2.799453    7.841776   -2.952172
     17          1           0        4.845455    6.452789   -2.952908
     18          1           0        4.764677    4.155909   -2.215567
     19          6           0        0.171952    4.487838   -1.292820
     20          8           0       -0.825446    5.246039   -1.325219
     21         16           0        2.706065    2.606898   -1.086572
     22          8           0       -0.793031   -0.696366    0.621360
     23          6           0       -3.046362   -1.582813    1.378034
     24          6           0       -2.231442   -2.579132    2.257585
     25          6           0       -4.288436   -1.106013    2.146617
     26          1           0       -1.310082   -2.777662    1.755145
     27          1           0       -4.756988   -0.322184    1.584981
     28          6           0       -1.956623   -2.066603    3.723581
     29          6           0       -4.005169   -0.618798    3.604113
     30          6           0       -3.314450   -1.758375    4.374711
     31          1           0       -3.931380   -2.635655    4.347348
     32          1           0       -3.166051   -1.456747    5.383594
     33          1           0       -2.806664   -3.476072    2.349547
     34          1           0       -4.954067   -1.942009    2.231551
     35          6           0       -3.515931   -2.327792    0.105914
     36          1           0       -4.099221   -1.675621   -0.508336
     37          1           0       -2.662599   -2.662809   -0.442795
     38          1           0       -4.111349   -3.172252    0.389180
     39          6           0       -1.233999   -3.180536    4.477267
     40          1           0       -1.066627   -2.869323    5.484248
     41          1           0       -1.840106   -4.063755    4.472993
     42          1           0       -0.301380   -3.384498    4.001185
     43          6           0       -5.388753   -0.315407    4.232742
     44          1           0       -6.014486   -1.185067    4.164849
     45          1           0       -5.254769   -0.057983    5.263825
     46          1           0       -5.855164    0.495265    3.720170
     47          6           0       -1.086179   -0.804111    3.768449
     48          8           0        0.164590   -0.958004    3.892756
     49          7           0       -1.637985    0.432219    3.666247
     50          1           0       -1.006354    1.218674    3.540494
     51          6           0       -3.125233    0.663558    3.771247
     52          1           0       -3.463535    1.414459    3.055663
     53          1           0       -3.276009    1.004946    4.752828
     54          7           0       -2.599590    0.771288    0.626339
     55          6           0       -2.176466   -0.433264    0.899322
     56          6           0        3.081332    0.486453    2.821445
     57          1           0        3.097780   -0.021930    1.901050
     58          1           0        3.513504   -0.146352    3.594688
     59          6           0        3.979707    1.741874    2.663161
     60          1           0        4.940705    1.432443    2.274323
     61          1           0        4.136491    2.231998    3.602002
     62          6           0        3.286314    2.708744    1.697093
     63          1           0        3.906677    3.581921    1.583629
     64          1           0        3.113519    2.258349    0.759281
     65          6           0        1.120319    2.017762    2.979027
     66          7           0        1.635403    0.801834    3.145860
     67          1           0        1.029229    0.076550    3.453680
     68          8           0       -0.038038    2.278774    3.353319
     69          6           0        1.935085    3.088759    2.306722
     70          6           0        1.454606    4.338790    2.235035
     71          6           0        1.034385    5.596508    2.032764
     72          1           0        0.590119    5.849413    1.092129
     73          6           0       -0.060678    7.076172    3.767833
     74          1           0       -0.488882    6.239268    4.275305
     75          1           0       -0.736758    7.429781    3.023254
     76          6           0        1.244917    6.678264    3.095241
     77          1           0        1.636683    7.547593    2.617561
     78          1           0        1.953531    6.313016    3.815150
     79          6           0        0.218676    8.210350    4.775922
     80          1           0        0.663563    9.039760    4.270148
     81          1           0        0.879269    7.856050    5.537011
     82          6           0       -1.110213    8.662565    5.416553
     83          6           0       -1.581802    8.023361    6.564485
     84          6           0       -1.841419    9.716194    4.847305
     85          6           0       -2.796949    8.418858    7.137950
     86          1           0       -1.016422    7.226158    7.003081
     87          6           0       -3.056320   10.114164    5.422482
     88          1           0       -1.475602   10.215576    3.972025
     89          6           0       -3.534343    9.464832    6.567848
     90          1           0       -3.161490    7.922944    8.016208
     91          1           0       -3.618555   10.918703    4.988283
     92          1           0       -4.463389    9.764879    7.004860
 ---------------------------------------------------------------------
 Rotational constants (GHZ):           0.0620131           0.0460818           0.0326207
 Leave Link  202 at Fri Jul 12 09:46:04 2024, MaxMem=  2684354560 cpu:               0.1 elap:               0.0
 (Enter /mnt/data/applications/G16/g16/l301.exe)
 General basis read from cards:  (5D, 7F)
 Centers:       1      2      3      4      5      6      7      8      9     11
 Centers:      12     13     19     23     24     25     28     29     30     35
 Centers:      39     43     47     51     55     56     59     62     65     69
 Centers:      70     71     73     76     79     82     83     84     85     87
 Centers:      89     10     14     15     16     17     18     26     27     31
 Centers:      32     33     34     36     37     38     40     41     42     44
 Centers:      45     46     50     52     53     57     58     60     61     63
 Centers:      64     67     72     74     75     77     78     80     81     86
 Centers:      88     90     91     92     20     22     48     68     49     54
 Centers:      66     21
 cc-pVTZ
 ****
 ======================================================================================================
                                       Pseudopotential Parameters
 ======================================================================================================
  Center     Atomic      Valence      Angular      Power
  Number     Number     Electrons     Momentum     of R      Exponent        Coefficient   SO-Coeffient
 ======================================================================================================
    1          6
                                   No pseudopotential on this center.
    2          6
                                   No pseudopotential on this center.
    3          6
                                   No pseudopotential on this center.
    4          6
                                   No pseudopotential on this center.
    5          6
                                   No pseudopotential on this center.
    6          6
                                   No pseudopotential on this center.
    7          6
                                   No pseudopotential on this center.
    8          6
                                   No pseudopotential on this center.
    9          6
                                   No pseudopotential on this center.
   10          1
                                   No pseudopotential on this center.
   11          6
                                   No pseudopotential on this center.
   12          6
                                   No pseudopotential on this center.
   13          6
                                   No pseudopotential on this center.
   14          1
                                   No pseudopotential on this center.
   15          1
                                   No pseudopotential on this center.
   16          1
                                   No pseudopotential on this center.
   17          1
                                   No pseudopotential on this center.
   18          1
                                   No pseudopotential on this center.
   19          6
                                   No pseudopotential on this center.
   20          8
                                   No pseudopotential on this center.
   21         16
                                   No pseudopotential on this center.
   22          8
                                   No pseudopotential on this center.
   23          6
                                   No pseudopotential on this center.
   24          6
                                   No pseudopotential on this center.
   25          6
                                   No pseudopotential on this center.
   26          1
                                   No pseudopotential on this center.
   27          1
                                   No pseudopotential on this center.
   28          6
                                   No pseudopotential on this center.
   29          6
                                   No pseudopotential on this center.
   30          6
                                   No pseudopotential on this center.
   31          1
                                   No pseudopotential on this center.
   32          1
                                   No pseudopotential on this center.
   33          1
                                   No pseudopotential on this center.
   34          1
                                   No pseudopotential on this center.
   35          6
                                   No pseudopotential on this center.
   36          1
                                   No pseudopotential on this center.
[...]
 ,0.00002467,-0.00041996,0.00010993,0.00007719,-0.00400836,0.00058810,0
 .00408714,-0.00063151,-0.00074950,0.00049554,-0.01284435,0.02300687,-0
 .01293450,0.00062148,-0.00076817,0.00316735,-0.00005261,-0.00009201,-0
 .00034201,-0.14867315,0.11780954,-0.05593890,0.00090278,-0.00122882,-0
 .00093007,0.01062190,-0.00978707,0.00542790,0.00034863,-0.00048183,0.0
 0034665,0.15391707,0.00000142,0.00000043,0.00000171,-0.00000157,-0.000
 00095,-0.00000357,0.00000013,-0.00000004,0.00000111,0.00000012,-0.0000
 0002,-0.00000022,-0.00000034,0.00000087,-0.00000026,-0.00000046,-0.000
 00003,-0.00000045,-0.00000079,-0.00000024,0.00000074,-0.00000030,-0.00
 000070,-0.00000118,-0.00000068,0.00000069,-0.00000128,0.00000036,0.000
 00010,0.00000070,0.00000032,0.,0.00000142,-0.00000009,-0.00000026,-0.0
 0000099,0.00000053,0.00000031,0.00000039,0.00000081,-0.00000017,0.0000
 0075,0.00000020,0.00000004,0.00000030,0.00000004,0.,-0.00000033,0.0000
 0002,0.,0.00000031,0.00000010,0.00000005,-0.00000005,0.00000259,-0.000
 00104,0.00000180,-0.00000237,0.00000081,-0.00000178,-0.00000097,0.0000
 0008,-0.00000025,-0.00000140,0.00000064,0.00000035,-0.00000028,0.00000
 001,-0.00000007,-0.00000015,0.00000020,0.00000014,-0.00000025,-0.00000
 065,0.00000042,0.00000012,-0.00000004,0.00000005,0.00000020,0.00000022
 ,-0.00000014,0.00000035,0.00000024,0.00000030,0.00000019,0.00000049,-0
 .00000011,-0.00000055,-0.00000044,0.00000076,0.00000019,0.00000003,-0.
 00000018,0.00000002,-0.00000002,-0.00000060,-0.00000004,-0.00000028,-0
 .00000021,0.00000019,0.00000005,-0.00000022,0.00000044,-0.00000002,0.0
 0000023,-0.00000037,0.00000060,-0.00000025,0.00000018,-0.00000023,-0.0
 0000021,-0.00000014,-0.00000025,0.00000011,-0.00000012,-0.00000061,0.0
 0000013,0.00000002,0.00000022,0.00000006,-0.00000010,-0.00000007,-0.00
 000005,-0.00000012,0.00000012,-0.00000009,-0.00000018,-0.00000062,0.00
 000061,0.00000007,-0.00000010,-0.00000002,-0.00000019,0.00000018,-0.00
 000044,0.00000002,0.00000049,0.00000011,0.00000071,0.00000049,0.000000
 22,-0.00000170,-0.00000138,0.00000014,-0.00000181,-0.00000139,-0.00000
 089,0.00000246,0.00000255,0.00000005,0.00000076,-0.00000017,0.00000143
 ,0.00000016,0.00000012,0.00000004,0.00000005,0.00000006,-0.00000084,-0
 .00000037,0.00000122,-0.00000125,0.00000138,-0.00000178,0.00000070,-0.
 00000203,0.00000103,0.00000083,0.00000058,0.00000010,-0.00000052,0.000
 00025,-0.00000031,0.00000011,0.00000157,0.00000107,-0.00000172,0.00000
 096,-0.00000097,0.00000043,-0.00000028,-0.00000005,0.00000019,-0.00000
 366,-0.00000252,-0.00000171,0.00000056,-0.00000003,0.00000056,0.000002
 42,-0.00000088,-0.00000068,0.00001268,0.00001393,-0.00000199,-0.000002
 55,-0.00000904,0.00000171,0.00000260,0.00000145,-0.00000072,-0.0000072
 0,-0.00000582,0.00000107,-0.00000380,-0.00001287,0.00000423,-0.0000048
 3,0.00001353,-0.00001442,0.00002864,-0.00000288,0.00000502,-0.00000068
 ,-0.00000232,-0.00000078,0.00010697,0.00003075,0.00005170,-0.00000656,
 -0.00001487,-0.00000026,0.00000057,0.00000619,0.00000416,-0.00003908,-
 0.00004934,-0.00001977,-0.00000034,0.00000358,-0.00000017,0.00000482,0
 .00000033,0.00000542,-0.00003894,-0.00004664,0.00010074,0.00000149,-0.
 00001336,-0.00001849,0.00010860,-0.00005267,-0.00006992,0.00092908,0.0
 0419015,0.00247386,-0.00070227,-0.00013529,-0.00041259,-0.00002199,0.0
 0154507,0.00161100,-0.00149038,0.00135214,0.00549334,-0.00008499,-0.00
 048927,-0.00051958,0.11788477,-0.19491318,0.08627374,-0.00058028,-0.00
 107181,-0.00239663,0.01322323,-0.01035624,0.00647000,0.00068769,-0.000
 57199,0.00038646,-0.12897041,0.20143385,0.00000045,0.00000007,0.000000
 14,-0.00000014,-0.00000064,-0.00000096,-0.00000030,0.00000100,0.000000
 20,0.00000086,-0.00000010,-0.00000020,-0.00000079,0.00000038,0.0000000
 7,0.00000022,-0.00000060,-0.00000010,0.00000007,-0.00000067,0.00000033
 ,-0.00000164,-0.00000017,0.,0.00000047,0.00000039,0.00000002,0.0000001
 9,0.00000033,-0.00000021,-0.00000063,-0.00000010,0.00000036,-0.0000000
 2,-0.00000031,0.00000009,0.00000022,-0.00000003,-0.00000005,0.00000005
 ,0.00000004,-0.00000024,0.00000002,-0.00000004,0.,0.00000008,0.0000001
 0,-0.00000015,-0.00000005,-0.00000005,-0.00000004,-0.00000019,0.000000
 07,0.00000002,0.00000366,-0.00000289,-0.00000123,-0.00000323,0.0000027
 6,0.00000137,-0.00000018,0.00000054,-0.00000014,-0.00000111,0.00000131
 ,0.00000046,-0.00000011,0.00000009,-0.00000015,0.00000004,-0.00000019,
 0.00000011,-0.00000021,-0.00000037,0.00000026,-0.00000017,0.00000004,-
 0.00000007,-0.00000025,0.00000010,-0.00000021,0.00000020,0.00000013,-0
 .00000011,-0.00000025,0.00000005,0.00000010,-0.00000021,-0.00000037,0.
 00000006,0.00000032,0.00000042,-0.00000007,0.00000001,-0.00000010,0.00
 000009,0.00000013,0.00000019,-0.00000010,0.00000036,0.00000038,-0.0000
 0010,0.00000008,-0.00000012,0.00000010,-0.00000010,0.00000006,-0.00000
 011,-0.00000003,0.00000011,0.00000011,0.00000009,0.00000012,-0.0000000
 9,0.00000013,-0.00000024,0.00000004,0.00000003,0.00000002,0.00000006,0
 .00000006,0.00000018,-0.00000007,-0.00000017,0.00000008,0.00000006,-0.
 00000013,-0.00000018,0.00000015,0.00000027,0.00000051,0.00000005,0.000
 00008,-0.00000027,0.00000016,-0.00000037,0.00000002,-0.00000031,0.0000
 0190,-0.00000322,-0.00000024,-0.00000172,0.00000123,0.00000047,-0.0000
 0092,0.00000271,-0.00000011,0.00000033,-0.00000075,0.00000013,0.000000
 76,-0.00000074,-0.00000021,-0.00000024,-0.00000022,-0.00000069,0.00000
 002,-0.00000024,0.00000079,-0.00000016,0.00000177,-0.00000020,0.000001
 16,-0.00000231,0.00000009,0.00000112,-0.00000015,-0.00000038,-0.000000
 18,-0.00000007,0.00000037,-0.00000018,0.00000008,-0.00000006,-0.000000
 16,-0.00000005,0.00000017,-0.00000033,0.00000018,0.00000003,0.00000005
 ,-0.00000003,0.00000007,0.00000020,0.00000034,-0.00000019,0.,0.0000000
 5,0.,-0.00000012,0.00000008,0.00000035,0.00000268,-0.00000289,-0.00000
 018,-0.00000136,0.00000302,-0.00000024,-0.00000008,-0.00000041,0.00000
 026,-0.00000246,0.00000098,0.00000051,0.00000020,0.00000106,-0.0000012
 3,0.00000062,-0.00000086,0.00000107,-0.00000195,-0.00000111,-0.0000033
 7,0.00000069,-0.00000043,-0.00000116,0.00000414,-0.00000571,0.00001152
 ,-0.00000221,-0.00000857,-0.00000347,0.00000520,-0.00000862,-0.0000071
 5,-0.00001110,-0.00001622,0.00000827,-0.00000346,-0.00000074,0.0000024
 2,-0.00000320,0.00000310,0.00000378,0.00035931,-0.00020539,0.00021405,
 -0.00005278,-0.00000896,0.00000074,0.00013414,-0.00005142,-0.00007502,
 0.00328655,0.00278752,0.00392272,0.00040158,-0.00039514,-0.00074058,0.
 00619418,-0.00722559,0.00711835,0.00381495,0.00518888,0.00150180,-0.00
 034548,-0.00053275,-0.00058166,-0.05594439,0.08620568,-0.08780752,-0.0
 0144161,-0.00214216,-0.00188481,-0.01369610,0.01530125,-0.00405430,-0.
 00062857,0.00081121,-0.00025762,0.05881473,-0.09707638,0.08425586,-0.0
 0000093,0.00000042,0.00000039,-0.00000059,-0.00000038,-0.00000005,0.00
 000004,0.00000143,-0.00000022,0.00000108,-0.00000003,-0.00000031,-0.00
 000079,0.00000012,0.00000025,0.00000054,-0.00000139,-0.00000005,0.0000
 0027,-0.00000084,0.00000027,-0.00000133,0.00000004,0.00000019,0.000001
 16,0.00000044,0.00000035,-0.00000009,0.00000048,-0.00000067,-0.0000008
 7,-0.00000031,0.00000039,-0.00000025,-0.00000057,0.00000044,0.00000033
 ,0.00000055,-0.00000023,-0.00000017,-0.00000013,-0.00000046,0.00000007
 ,-0.00000027,-0.00000020,0.,0.00000002,-0.00000023,-0.00000005,-0.0000
 0010,-0.00000016,-0.00000012,-0.00000003,-0.00000007,0.00000265,-0.000
 00383,-0.00000228,-0.00000203,0.00000327,0.00000330,0.00000009,0.00000
 035,-0.00000005,0.00000051,0.00000120,-0.00000034,-0.00000037,-0.00000
 027,0.00000039,0.00000013,-0.00000022,-0.00000023,-0.00000020,0.000000
 19,0.00000012,-0.00000008,-0.00000008,-0.00000018,-0.00000022,-0.00000
 014,-0.00000008,0.00000030,0.00000006,0.00000027,-0.00000065,-0.000000
 23,0.00000045,0.00000013,0.00000005,-0.00000010,0.00000030,0.00000040,
 -0.00000005,-0.00000010,-0.00000017,0.00000007,0.00000020,0.00000034,-
 0.00000002,0.00000036,0.00000041,-0.00000008,-0.00000016,-0.00000026,-
 0.00000022,-0.00000003,-0.00000007,0.,0.,0.00000011,0.00000006,0.00000
 022,0.00000036,-0.00000010,0.00000041,-0.00000014,-0.00000003,-0.00000
 004,-0.00000005,0.00000007,0.00000005,0.00000027,-0.00000007,-0.000000
 13,-0.00000004,0.00000004,-0.00000004,0.00000063,-0.00000019,0.0000003
 0,0.00000034,-0.00000002,-0.00000012,-0.00000017,0.00000003,-0.0000001
 6,-0.00000042,0.00000019,0.00000018,-0.00000330,-0.00000005,0.00000090
 ,0.00000240,-0.00000014,0.00000121,0.00000363,-0.00000023,-0.00000206,
 -0.00000351,0.00000057,-0.00000048,-0.00000002,-0.00000025,-0.00000045
 ,-0.00000023,-0.00000068,-0.00000019,-0.00000039,0.00000083,0.00000074
 ,0.00000164,0.,0.00000002,-0.00000111,-0.00000013,0.00000330,-0.000001
 36,-0.00000127,-0.00000074,-0.00000005,0.00000097,-0.00000046,0.000000
 57,-0.00000017,-0.00000158,-0.00000079,0.00000161,-0.00000109,0.000001
 03,-0.00000025,0.00000030,-0.00000009,-0.00000006,0.00000281,0.0000026
 8,0.00000078,-0.00000036,0.,-0.00000050,-0.00000206,0.00000062,0.00000
 091,-0.00000793,-0.00001578,0.00000241,0.00000050,0.00001187,-0.000001
 83,-0.00000247,-0.00000233,0.00000112,0.00000381,0.00000652,-0.0000006
 2,0.00000302,0.00001266,-0.00000524,0.00000605,-0.00001323,0.00001278,
 -0.00001986,0.00000121,-0.00000566,0.00000106,0.00000240,0.00000007,-0
 .00002216,-0.00004013,-0.00004331,0.00000337,-0.00000640,-0.00001202,0
 .00000420,-0.00000690,0.00000153,0.00001474,0.00001149,0.00001719,-0.0
 0000405,-0.00000164,0.00000233,-0.00000404,0.00000119,-0.00000114,0.00
 003956,-0.00017658,-0.00020308,-0.00003484,-0.00004981,0.00007165,-0.0
 0003987,0.00006907,-0.00002572,0.00038340,-0.00009777,-0.00044819,0.00
 057184,0.00393599,-0.00075523,0.00175009,-0.00072260,0.00271255,-0.013
 29529,-0.00054833,0.00663646,-0.00077804,-0.00001490,0.00039075,-0.007
 32118,0.00259332,0.00174216,-0.00049468,0.00020156,0.00010585,-0.30795
 863,0.02579844,0.08170519,0.00058204,-0.00075575,-0.00115137,0.0004620
 1,-0.00103601,-0.00088360,0.32615770,0.00000218,-0.00000052,-0.0000004
 2,-0.00000023,0.00000024,-0.00000105,-0.00000049,-0.00000015,0.0000003
 5,-0.00000015,-0.00000045,0.,-0.00000073,0.00000046,0.00000014,-0.0000
 0045,0.00000049,0.,0.00000048,-0.00000034,-0.00000008,-0.00000111,0.00
 000103,0.00000068,-0.00000046,-0.00000079,-0.00000004,0.00000015,0.000
 00014,0.00000006,0.00000039,-0.00000039,0.,-0.00000046,0.00000049,0.00
 000007,-0.00000076,-0.00000072,0.00000024,0.00000027,0.00000001,-0.000
 00010,0.00000019,-0.00000013,0.00000003,0.00000005,0.00000021,-0.00000
 014,0.00000017,0.00000003,-0.00000007,-0.00000008,-0.00000006,-0.00000
 003,0.00000283,0.00000021,-0.00000033,-0.00000186,0.00000050,-0.000000
 15,0.00000062,0.00000079,-0.00000045,-0.00000174,0.00000045,0.00000094
 ,0.00000034,0.00000061,-0.00000109,-0.00000025,-0.00000020,0.00000061,
 -0.00000012,-0.00000061,0.00000038,-0.00000015,0.00000014,0.,-0.000000
 19,0.00000023,-0.00000033,-0.00000001,-0.00000007,-0.00000091,0.000000
 04,0.00000022,-0.00000054,-0.00000070,-0.00000059,0.00000026,0.0000002
 8,0.00000026,-0.00000008,0.00000017,0.,0.00000032,0.00000010,0.0000000
 4,-0.00000012,0.00000020,0.00000012,-0.00000008,0.00000002,0.00000006,
 0.00000048,0.00000004,0.00000005,-0.00000011,-0.00000006,0.00000016,0.
 00000017,-0.00000008,-0.00000018,-0.00000008,-0.00000038,-0.00000027,0
 .00000031,0.00000014,0.00000006,0.00000008,0.00000015,0.00000021,-0.00
 000009,-0.00000002,0.00000015,-0.00000006,0.,-0.00000107,0.00000073,0.
 00000015,0.00000049,0.00000006,0.00000034,-0.00000029,0.00000037,-0.00
 000054,0.00000072,-0.00000099,0.00000286,-0.00000158,-0.00000042,-0.00
 000309,0.00000037,0.00000083,-0.00000174,0.00000132,0.00000012,0.00000
 119,0.00000075,0.00000004,0.00000158,-0.00000080,-0.00000020,0.0000000
 8,-0.00000018,-0.00000057,0.00000026,0.00000013,0.00000071,-0.00000126
 ,0.00000027,0.00000030,0.00000139,-0.00000175,0.00000013,-0.00000042,0
 .00000046,0.00000035,0.00000020,-0.00000009,-0.00000008,-0.00000001,-0
 .00000011,0.,0.00000029,0.00000036,-0.00000032,0.00000020,-0.00000025,
 0.00000009,-0.00000010,-0.00000004,0.00000002,-0.00000099,-0.00000089,
 -0.00000138,0.00000003,-0.00000005,0.00000021,0.00000088,-0.00000018,-
 0.00000006,0.00000609,0.00000362,0.00000042,-0.00000162,-0.00000219,0.
 00000032,0.00000106,0.00000071,-0.00000044,-0.00000415,-0.00000194,0.0
 0000060,-0.00000182,-0.00000415,0.00000150,-0.00000106,0.00000184,-0.0
 0000420,0.00001370,-0.00000037,0.00000083,-0.00000008,0.00000031,-0.00
 000002,0.00006299,0.00000296,-0.00001975,-0.00000061,0.00000776,0.0000
 0965,0.00000498,-0.00000910,-0.00001675,-0.00000802,-0.00001718,-0.000
 03222,0.00000022,0.00000101,-0.00000082,-0.00000243,-0.00000060,0.0000
 0360,-0.00006760,-0.00025845,-0.00057572,0.00004426,-0.00003124,0.0000
 2992,-0.00010217,0.00009700,-0.00004302,-0.00018307,-0.00114431,0.0002
 0085,0.00319831,-0.00024059,0.00508256,0.00010157,0.00038706,0.0057361
 2,0.02239054,0.00204357,-0.00782019,0.00112256,0.00002986,-0.00023503,
 -0.02049974,0.00536004,0.00574041,-0.00097411,0.00017018,0.00042532,0.
 02583846,-0.05249303,0.00392384,-0.00143958,-0.00078215,-0.00225170,-0
 .00033765,-0.00084070,-0.00262005,-0.02916063,0.04772058,0.00000161,-0
 .00000024,-0.00000020,0.00000017,-0.00000042,-0.00000126,-0.00000049,-
 0.00000028,0.00000051,0.00000017,-0.00000004,-0.00000003,-0.00000067,0
 .00000040,0.00000001,-0.00000006,0.00000042,-0.00000018,0.00000010,0.0
 0000006,0.00000016,-0.00000075,-0.00000015,-0.00000020,-0.00000046,0.0
 0000013,-0.00000011,0.00000019,0.00000016,0.00000023,0.00000010,-0.000
 00017,0.00000012,-0.00000010,0.00000018,-0.00000011,-0.00000018,-0.000
 00054,0.00000015,0.00000030,0.00000025,-0.00000008,0.00000006,0.000000
 03,0.00000014,0.,0.00000013,-0.00000003,0.00000005,0.,0.00000004,-0.00
 000009,0.00000003,0.00000004,0.00000225,0.00000039,0.,-0.00000186,-0.0
 0000002,-0.00000055,-0.00000019,0.00000028,-0.00000016,-0.00000205,0.0
 0000073,0.00000097,0.00000005,0.00000032,-0.00000062,-0.00000005,-0.00
 000012,0.00000036,0.00000010,-0.00000074,0.00000036,-0.00000015,0.0000
 0010,-0.00000002,-0.00000019,0.00000030,-0.00000031,0.,0.00000012,-0.0
 0000036,-0.00000024,0.00000026,-0.00000025,-0.00000028,-0.00000046,0.0
 0000035,0.00000024,0.00000031,-0.00000005,-0.00000004,-0.00000003,-0.0
 0000005,0.00000006,0.00000002,-0.00000010,0.00000021,0.00000016,-0.000
 00003,0.00000022,-0.00000006,0.00000035,-0.00000011,0.00000017,-0.0000
 0020,-0.00000005,0.00000007,0.00000008,-0.00000003,-0.00000011,-0.0000
 0005,-0.00000010,-0.00000023,0.00000014,0.00000002,0.00000005,0.,0.000
 00005,0.00000010,-0.00000003,-0.00000009,0.00000012,0.,0.00000020,-0.0
 0000086,0.00000076,0.00000017,0.00000036,0.00000005,-0.00000013,-0.000
 00009,-0.00000008,-0.00000035,0.00000048,-0.00000044,0.00000239,-0.000
 00209,-0.00000030,-0.00000280,0.00000012,0.00000068,-0.00000183,0.0000
 0128,-0.00000014,0.00000174,0.00000099,-0.00000023,0.00000139,-0.00000
 090,0.00000044,-0.00000005,-0.00000016,-0.00000067,0.,-0.00000007,0.00
 000044,-0.00000090,0.00000110,-0.00000022,0.00000158,-0.00000238,0.000
 00021,-0.00000069,0.00000071,0.00000037,0.00000024,-0.00000002,-0.0000
 0014,0.00000003,-0.00000027,0.00000005,0.00000074,0.00000054,-0.000000
 93,0.00000035,-0.00000046,0.00000025,-0.00000012,-0.00000005,0.0000002
 0,-0.00000195,-0.00000161,-0.00000203,0.00000014,-0.00000001,0.0000003
 2,0.00000148,-0.00000035,-0.00000024,0.00001128,0.00000692,-0.00000072
 ,-0.00000268,-0.00000408,0.00000083,0.00000150,0.00000084,-0.00000061,
 -0.00000699,-0.00000301,0.00000194,-0.00000262,-0.00000815,0.00000308,
 -0.00000232,0.00000530,-0.00000781,0.00002104,0.,0.00000086,-0.0000004
 7,0.00000005,0.00000020,0.00008954,-0.00000451,-0.00000286,0.00000504,
 -0.00001678,-0.00001362,0.00000049,0.00000688,0.00000728,-0.00001101,-
 0.00003888,-0.00003389,-0.00000381,0.00000391,0.00000066,0.00000131,-0
 .00000116,0.00000148,-0.00005254,-0.00054839,-0.00050454,-0.00006068,-
 0.00007650,0.00009044,0.00000730,0.00006377,-0.00003759,-0.00055108,0.
 00017769,-0.00092593,-0.00005847,0.00482067,0.00325227,0.00211734,0.00
 601568,0.00148864,-0.01271909,0.00104732,0.00685412,-0.00060454,0.0002
 0214,0.00029795,0.02092461,-0.00315439,-0.00242997,0.00104659,-0.00001
 886,-0.00012033,0.08175085,0.00392508,-0.07041595,-0.00057439,-0.00251
 737,-0.00178462,-0.00145801,-0.00234741,-0.00162310,-0.08986751,-0.007
 53475,0.06590439\\-0.00000312,-0.00000625,0.00000400,-0.00000029,0.000
 00024,-0.00000136,-0.00000448,-0.00000338,-0.00000210,0.00000863,0.000
 00881,-0.00000545,0.00000291,-0.00000800,-0.00000030,0.00000743,0.0000
 1744,0.00000577,-0.00000367,-0.00000609,0.00000158,-0.00000014,-0.0000
 0308,-0.00000051,0.00000036,0.00000078,-0.00000167,0.00000047,-0.00000
 169,0.00000237,0.00000500,-0.00000047,0.00000158,0.00000124,-0.0000000
 5,-0.00000019,0.00000262,-0.00000164,0.00000053,0.00000251,0.00000170,
 -0.00000032,-0.00000136,-0.00000303,-0.00000115,0.00000128,-0.00000027
 ,-0.00000256,0.00000285,-0.00000112,0.00000120,0.00000173,-0.00000202,
 0.00000159,0.00000123,0.00000474,0.00000087,0.00000181,-0.00000371,-0.
 00000016,-0.00000166,-0.00000006,0.00000283,-0.00001147,-0.00000942,-0
 .00000015,-0.00000121,0.00000214,0.00000652,-0.00000727,0.00000354,-0.
 00000191,0.00000612,0.00000108,0.00000189,0.00000004,0.00000086,0.0000
 0048,-0.00000135,0.00000073,-0.00000057,0.00000044,0.00000162,-0.00000
 022,-0.00000377,0.,-0.00000233,-0.00000031,-0.00000088,-0.00000335,-0.
 00000114,-0.00000016,0.00000006,-0.00000153,0.00000221,0.00000187,0.00
 000023,-0.00000253,0.00000306,-0.00000430,0.00000073,-0.00000083,-0.00
 000313,-0.00000271,-0.00000710,-0.00000068,0.00000151,-0.00000046,0.00
 000079,-0.00000025,0.00000056,0.00000064,0.00000035,0.00000180,-0.0000
 0098,-0.00000038,-0.00000068,-0.00000078,0.00000051,0.00000202,-0.0000
 0215,0.00000028,0.00000104,0.00000092,-0.00000077,0.00000100,-0.000000
 63,0.00000029,-0.00000008,-0.00000168,0.00000025,-0.00000069,-0.000000
 51,0.00000115,-0.00000049,-0.00000231,0.00000296,-0.00000070,-0.000003
 70,0.00000176,0.00001261,0.00000570,0.00000292,-0.00000577,-0.00000622
 ,-0.00000824,0.00000017,0.00000326,0.00000468,0.00000216,0.00000334,0.
 00000141,-0.00000559,-0.00000206,-0.00000111,-0.00000084,0.00000003,0.
 00000254,0.00000155,-0.00000737,-0.00000458,-0.00000936,0.00001391,0.0
 0000197,0.00000657,-0.00000271,-0.00000268,-0.00000559,-0.00000064,-0.
 00000181,0.00000050,0.00000048,-0.00000049,0.00000304,-0.00000173,0.00
 000221,-0.00000049,0.00000180,-0.00000077,0.00000128,-0.00000013,-0.00
 000116,0.00000252,-0.00000425,0.00000085,0.00000746,0.00000112,-0.0000
 0154,0.00000004,-0.00000054,-0.00000268,-0.00000337,0.00000674,-0.0000
 0075,0.00000094,0.00000992,0.00000967,0.00001029,-0.00000897,-0.000010
 59,0.00000075,-0.00000262,0.00000137,-0.00000662,-0.00000167,-0.000002
 52,0.00000271,0.00000125,-0.00000163,0.00000156,0.00000295,0.00000829,
 -0.00001282,0.00000242,-0.00000342,0.00000281,0.00000210,0.00000090,0.
 00000209,-0.00000049,-0.00000093,-0.00000080,-0.00000067,0.00000060,-0
 .00000225,0.00000200,0.00000113,0.00001182,-0.00000128,-0.00000160,-0.
 00000276,-0.00000021,-0.00000163,-0.00000212,-0.00000101,-0.00000042,-
 0.00000237,0.00000043,0.00000139,-0.00000118,0.00000084,0.00000022,0.0
 0000066,-0.00000190,0.00000197,-0.00000134,-0.00000123,0.00000051,-0.0
 0000098,0.00000184,-0.00000031,-0.00000127,0.00000073,0.00000091,-0.00
 000182,0.00000001,0.00000089,-0.00000089,-0.00000086,0.00000009,-0.000
 00094,0.00000062,0.00000067,-0.00000165,0.00000127,0.00000224,-0.00000
 294,-0.00000108,0.00000123,-0.00000110,0.00000009,0.00000124,-0.000002
 17,-0.00000085,0.00000123,-0.00000182\\\@


 MAN IS THE MEASURE OF ALL THINGS.
  -- PROTAGORAS (5TH CENTURY B.C.)
 Job cpu time:      50 days  6 hours 10 minutes 53.0 seconds.
 Elapsed time:       4 days  4 hours 50 minutes 48.2 seconds.
 File lengths (MBytes):  RWF=  22573 Int=      0 D2E=      0 Chk=    364 Scr=      1
 Normal termination of Gaussian 16 at Mon Jul 22 11:13:15 2024.
