 Entering Gaussian System, Link 0=g16
 Initial command:
 /mnt/data/applications/G16/g16/l1.exe "/scratch/Gau-17017.inp" -scrdir="/scratch/"
 Entering Link 1 = /mnt/data/applications/G16/g16/l1.exe PID=     17018.
  
 Copyright (c) 1988,1990,1992,1993,1995,1998,2003,2009,2016,
            Gaussian, Inc.  All Rights Reserved.
  
 This is part of the Gaussian(R) 16 program.  It is based on
 the Gaussian(R) 09 system (copyright 2009, Gaussian, Inc.),
 the Gaussian(R) 03 system (copyright 2003, Gaussian, Inc.),
 the Gaussian(R) 98 system (copyright 1998, Gaussian, Inc.),
 the Gaussian(R) 94 system (copyright 1995, Gaussian, Inc.),
 the Gaussian 92(TM) system (copyright 1992, Gaussian, Inc.),
 the Gaussian 90(TM) system (copyright 1990, Gaussian, Inc.),
 the Gaussian 88(TM) system (copyright 1988, Gaussian, Inc.),
 the Gaussian 86(TM) system (copyright 1986, Carnegie Mellon
 University), and the Gaussian 82(TM) system (copyright 1983,
 Carnegie Mellon University). Gaussian is a federally registered
 trademark of Gaussian, Inc.
  
 This software contains proprietary and confidential information,
 including trade secrets, belonging to Gaussian, Inc.
  
 This software is provided under written license and may be
 used, copied, transmitted, or stored only in accord with that
 written license.
  
 The following legend is applicable only to US Government
 contracts under FAR:
  
                    RESTRICTED RIGHTS LEGEND
  
 Use, reproduction and disclosure by the US Government is
 subject to restrictions as set forth in subparagraphs (a)
 and (c) of the Commercial Computer Software - Restricted
 Rights clause in FAR 52.227-19.
  
 Gaussian, Inc.
 340 Quinnipiac St., Bldg. 40, Wallingford CT 06492
  
  
 ---------------------------------------------------------------
 Warning -- This program may not be used in any manner that
 competes with the business of Gaussian, Inc. or will provide
 assistance to any competitor of Gaussian, Inc.  The licensee
 of this program is prohibited from giving any competitor of
 Gaussian, Inc. access to this program.  By using this program,
 the user acknowledges that Gaussian, Inc. is engaged in the
 business of creating and licensing software in the field of
 computational chemistry and represents and warrants to the
 licensee that it is not a competitor of Gaussian, Inc. and that
 it will not use this program in any manner prohibited above.
 ---------------------------------------------------------------
  

 Cite this work as:
 Gaussian 16, Revision A.03,
 M. J. Frisch, G. W. Trucks, H. B. Schlegel, G. E. Scuseria, 
 M. A. Robb, J. R. Cheeseman, G. Scalmani, V. Barone, 
 G. A. Petersson, H. Nakatsuji, X. Li, M. Caricato, A. V. Marenich, 
 J. Bloino, B. G. Janesko, R. Gomperts, B. Mennucci, H. P. Hratchian, 
 J. V. Ortiz, A. F. Izmaylov, J. L. Sonnenberg, D. Williams-Young, 
 F. Ding, F. Lipparini, F. Egidi, J. Goings, B. Peng, A. Petrone, 
 T. Henderson, D. Ranasinghe, V. G. Zakrzewski, J. Gao, N. Rega, 
 G. Zheng, W. Liang, M. Hada, M. Ehara, K. Toyota, R. Fukuda, 
 J. Hasegawa, M. Ishida, T. Nakajima, Y. Honda, O. Kitao, H. Nakai, 
 T. Vreven, K. Throssell, J. A. Montgomery, Jr., J. E. Peralta, 
 F. Ogliaro, M. J. Bearpark, J. J. Heyd, E. N. Brothers, K. N. Kudin, 
 V. N. Staroverov, T. A. Keith, R. Kobayashi, J. Normand, 
 K. Raghavachari, A. P. Rendell, J. C. Burant, S. S. Iyengar, 
 J. Tomasi, M. Cossi, J. M. Millam, M. Klene, C. Adamo, R. Cammi, 
 J. W. Ochterski, R. L. Martin, K. Morokuma, O. Farkas, 
 J. B. Foresman, and D. J. Fox, Gaussian, Inc., Wallingford CT, 2016.
 
 ******************************************
 Gaussian 16:  AM64L-G16RevA.03 25-Dec-2016
                 9-Jul-2024 
 ******************************************
 %nproc=12
 Will use up to   12 processors via shared memory.
 %mem=20GB
 %chk=thioxanthone.chk
 ----------------------------------------------------------------------
 #p opt freq b3lyp/gen pseudo=read EmpiricalDispersion=GD3BJ pop=(orbit
 als=20) optcyc=300 nosymm scrf=(pcm,solvent=acetonitrile)
 ----------------------------------------------------------------------
 1/6=300,18=20,19=15,26=3,38=1/1,3;
 2/9=110,12=2,15=1,17=6,18=5,40=1/2;
 3/5=7,11=2,16=1,17=8,25=1,30=1,70=2201,71=1,72=2,74=-5,124=41/1,2,3;
 4//1;
 5/5=2,38=5,53=2/2;
 6/7=2,8=2,9=2,10=2,28=1,96=20/1;
 7/30=1/1,2,3,16;
 1/6=300,18=20,19=15,26=3/3(2);
 2/9=110,15=1/2;
 99//99;
 2/9=110,15=1/2;
 3/5=7,6=1,11=2,16=1,17=8,25=1,30=1,70=2205,71=1,72=2,74=-5,82=7,124=41/1,2,3;
 4/5=5,16=3,69=1/1;
 5/5=2,38=5,53=2/2;
 7/30=1/1,2,3,16;
 1/6=300,18=20,19=15,26=3/3(-5);
 2/9=110,15=1/2;
 6/7=2,8=2,9=2,10=2,19=2,28=1,96=20/1;
 99/9=1/99;
 Leave Link    1 at Tue Jul  9 16:31:17 2024, MaxMem=  2684354560 cpu:               1.4 elap:               0.1
 (Enter /mnt/data/applications/G16/g16/l101.exe)
 -------------------
 Title Card Required
 -------------------
 Symbolic Z-matrix:
 Charge =  0 Multiplicity = 1
 C                    -8.39708  -1.40774  -0.01292 
 C                    -7.03246  -1.40774  -0.01292 
 C                    -6.29957  -0.17652  -0.01292 
 C                    -7.02357   1.05522  -0.01843 
 C                    -8.45581   1.01373  -0.01973 
 C                    -9.11959  -0.17856  -0.01636 
 C                    -4.92425   2.28927  -0.01453 
 C                    -4.20028   1.05757  -0.00711 
 C                    -2.7681    1.0992    0. 
 H                    -2.22223   0.14367   0.0066 
 C                    -2.10436   2.29155   0.00104 
 C                    -2.82684   3.52067  -0.00713 
 C                    -4.19149   3.52052  -0.0145 
 H                    -8.96295  -2.35102  -0.01051 
 H                    -6.46313  -2.34948  -0.00981 
 H                    -9.00162   1.96928  -0.02434 
 H                    -10.21899  -0.21473  -0.01779 
 H                    -1.00495   2.32745   0.0072 
 H                    -2.26076   4.46384  -0.00604 
 H                    -4.76103   4.46214  -0.02077 
 C                    -6.32319   2.26639  -0.02016 
 O                    -6.94517   3.32441  -0.02666 
 S                    -4.90067  -0.15363  -0.00802 
 
 ITRead=  0  0  0  0  0  0  0  0  0  0  0  0  0  0  0  0  0  0  0  0
 ITRead=  0  0  0
 MicOpt= -1 -1 -1 -1 -1 -1 -1 -1 -1 -1 -1 -1 -1 -1 -1 -1 -1 -1 -1 -1
 MicOpt= -1 -1 -1
 NAtoms=     23 NQM=       23 NQMF=       0 NMMI=      0 NMMIF=      0
                NMic=       0 NMicF=      0.
                    Isotopes and Nuclear Properties:
 (Nuclear quadrupole moments (NQMom) in fm**2, nuclear magnetic moments (NMagM)
  in nuclear magnetons)

  Atom         1           2           3           4           5           6           7           8           9          10
 IAtWgt=          12          12          12          12          12          12          12          12          12           1
 AtmWgt=  12.0000000  12.0000000  12.0000000  12.0000000  12.0000000  12.0000000  12.0000000  12.0000000  12.0000000   1.0078250
 NucSpn=           0           0           0           0           0           0           0           0           0           1
 AtZEff=  -0.0000000  -0.0000000  -0.0000000  -0.0000000  -0.0000000  -0.0000000  -0.0000000  -0.0000000  -0.0000000  -0.0000000
 NQMom=    0.0000000   0.0000000   0.0000000   0.0000000   0.0000000   0.0000000   0.0000000   0.0000000   0.0000000   0.0000000
 NMagM=    0.0000000   0.0000000   0.0000000   0.0000000   0.0000000   0.0000000   0.0000000   0.0000000   0.0000000   2.7928460
 AtZNuc=   6.0000000   6.0000000   6.0000000   6.0000000   6.0000000   6.0000000   6.0000000   6.0000000   6.0000000   1.0000000

  Atom        11          12          13          14          15          16          17          18          19          20
 IAtWgt=          12          12          12           1           1           1           1           1           1           1
 AtmWgt=  12.0000000  12.0000000  12.0000000   1.0078250   1.0078250   1.0078250   1.0078250   1.0078250   1.0078250   1.0078250
 NucSpn=           0           0           0           1           1           1           1           1           1           1
 AtZEff=  -0.0000000  -0.0000000  -0.0000000  -0.0000000  -0.0000000  -0.0000000  -0.0000000  -0.0000000  -0.0000000  -0.0000000
 NQMom=    0.0000000   0.0000000   0.0000000   0.0000000   0.0000000   0.0000000   0.0000000   0.0000000   0.0000000   0.0000000
 NMagM=    0.0000000   0.0000000   0.0000000   2.7928460   2.7928460   2.7928460   2.7928460   2.7928460   2.7928460   2.7928460
 AtZNuc=   6.0000000   6.0000000   6.0000000   1.0000000   1.0000000   1.0000000   1.0000000   1.0000000   1.0000000   1.0000000

  Atom        21          22          23
 IAtWgt=          12          16          32
 AtmWgt=  12.0000000  15.9949146  31.9720718
 NucSpn=           0           0           0
 AtZEff=  -0.0000000  -0.0000000  -0.0000000
 NQMom=    0.0000000   0.0000000   0.0000000
 NMagM=    0.0000000   0.0000000   0.0000000
 AtZNuc=   6.0000000   8.0000000  16.0000000
 Leave Link  101 at Tue Jul  9 16:31:18 2024, MaxMem=  2684354560 cpu:               5.2 elap:               0.5
 (Enter /mnt/data/applications/G16/g16/l103.exe)

 GradGradGradGradGradGradGradGradGradGradGradGradGradGradGradGradGradGrad
 Berny optimization.
 Initialization pass.
                           ----------------------------
                           !    Initial Parameters    !
                           ! (Angstroms and Degrees)  !
 --------------------------                            --------------------------
 ! Name  Definition              Value          Derivative Info.                !
 --------------------------------------------------------------------------------
 ! R1    R(1,2)                  1.3646         estimate D2E/DX2                !
 ! R2    R(1,6)                  1.4258         estimate D2E/DX2                !
 ! R3    R(1,14)                 1.1            estimate D2E/DX2                !
 ! R4    R(2,3)                  1.4328         estimate D2E/DX2                !
 ! R5    R(2,15)                 1.1005         estimate D2E/DX2                !
 ! R6    R(3,4)                  1.4288         estimate D2E/DX2                !
 ! R7    R(3,23)                 1.3991         estimate D2E/DX2                !
 ! R8    R(4,5)                  1.4328         estimate D2E/DX2                !
 ! R9    R(4,21)                 1.3991         estimate D2E/DX2                !
 ! R10   R(5,6)                  1.3646         estimate D2E/DX2                !
 ! R11   R(5,16)                 1.1005         estimate D2E/DX2                !
 ! R12   R(6,17)                 1.1            estimate D2E/DX2                !
 ! R13   R(7,8)                  1.4287         estimate D2E/DX2                !
 ! R14   R(7,13)                 1.4328         estimate D2E/DX2                !
 ! R15   R(7,21)                 1.3991         estimate D2E/DX2                !
 ! R16   R(8,9)                  1.4328         estimate D2E/DX2                !
 ! R17   R(8,23)                 1.3991         estimate D2E/DX2                !
 ! R18   R(9,10)                 1.1005         estimate D2E/DX2                !
 ! R19   R(9,11)                 1.3646         estimate D2E/DX2                !
 ! R20   R(11,12)                1.4258         estimate D2E/DX2                !
 ! R21   R(11,18)                1.1            estimate D2E/DX2                !
 ! R22   R(12,13)                1.3647         estimate D2E/DX2                !
 ! R23   R(12,19)                1.1            estimate D2E/DX2                !
 ! R24   R(13,20)                1.1005         estimate D2E/DX2                !
 ! R25   R(21,22)                1.2273         estimate D2E/DX2                !
 ! A1    A(2,1,6)              120.4466         estimate D2E/DX2                !
 ! A2    A(2,1,14)             120.9594         estimate D2E/DX2                !
 ! A3    A(6,1,14)             118.5939         estimate D2E/DX2                !
 ! A4    A(1,2,3)              120.7635         estimate D2E/DX2                !
 ! A5    A(1,2,15)             121.155          estimate D2E/DX2                !
 ! A6    A(3,2,15)             118.0813         estimate D2E/DX2                !
 ! A7    A(2,3,4)              118.7901         estimate D2E/DX2                !
 ! A8    A(2,3,23)             121.7006         estimate D2E/DX2                !
 ! A9    A(4,3,23)             119.5092         estimate D2E/DX2                !
 ! A10   A(3,4,5)              118.7868         estimate D2E/DX2                !
 ! A11   A(3,4,21)             119.5145         estimate D2E/DX2                !
 ! A12   A(5,4,21)             121.6986         estimate D2E/DX2                !
 ! A13   A(4,5,6)              120.765          estimate D2E/DX2                !
 ! A14   A(4,5,16)             118.0759         estimate D2E/DX2                !
 ! A15   A(6,5,16)             121.1591         estimate D2E/DX2                !
 ! A16   A(1,6,5)              120.4476         estimate D2E/DX2                !
 ! A17   A(1,6,17)             118.5627         estimate D2E/DX2                !
 ! A18   A(5,6,17)             120.9896         estimate D2E/DX2                !
 ! A19   A(8,7,13)             118.7949         estimate D2E/DX2                !
 ! A20   A(8,7,21)             119.5096         estimate D2E/DX2                !
 ! A21   A(13,7,21)            121.6954         estimate D2E/DX2                !
 ! A22   A(7,8,9)              118.7822         estimate D2E/DX2                !
 ! A23   A(7,8,23)             119.5142         estimate D2E/DX2                !
 ! A24   A(9,8,23)             121.7035         estimate D2E/DX2                !
 ! A25   A(8,9,10)             118.0746         estimate D2E/DX2                !
 ! A26   A(8,9,11)             120.7675         estimate D2E/DX2                !
 ! A27   A(10,9,11)            121.1578         estimate D2E/DX2                !
 ! A28   A(9,11,12)            120.4489         estimate D2E/DX2                !
 ! A29   A(9,11,18)            120.9732         estimate D2E/DX2                !
 ! A30   A(12,11,18)           118.5779         estimate D2E/DX2                !
 ! A31   A(11,12,13)           120.4423         estimate D2E/DX2                !
 ! A32   A(11,12,19)           118.5802         estimate D2E/DX2                !
 ! A33   A(13,12,19)           120.9774         estimate D2E/DX2                !
 ! A34   A(7,13,12)            120.7641         estimate D2E/DX2                !
 ! A35   A(7,13,20)            118.0731         estimate D2E/DX2                !
 ! A36   A(12,13,20)           121.1628         estimate D2E/DX2                !
 ! A37   A(4,21,7)             120.9759         estimate D2E/DX2                !
 ! A38   A(4,21,22)            119.5103         estimate D2E/DX2                !
 ! A39   A(7,21,22)            119.5138         estimate D2E/DX2                !
 ! A40   A(3,23,8)             120.9763         estimate D2E/DX2                !
 ! D1    D(6,1,2,3)              0.1607         estimate D2E/DX2                !
 ! D2    D(6,1,2,15)           179.9717         estimate D2E/DX2                !
 ! D3    D(14,1,2,3)          -179.854          estimate D2E/DX2                !
 ! D4    D(14,1,2,15)           -0.0429         estimate D2E/DX2                !
 ! D5    D(2,1,6,5)              0.0013         estimate D2E/DX2                !
 ! D6    D(2,1,6,17)           179.9091         estimate D2E/DX2                !
 ! D7    D(14,1,6,5)          -179.9844         estimate D2E/DX2                !
 ! D8    D(14,1,6,17)           -0.0766         estimate D2E/DX2                !
 ! D9    D(1,2,3,4)             -0.2525         estimate D2E/DX2                !
 ! D10   D(1,2,3,23)           179.7643         estimate D2E/DX2                !
 ! D11   D(15,2,3,4)           179.9308         estimate D2E/DX2                !
 ! D12   D(15,2,3,23)           -0.0524         estimate D2E/DX2                !
 ! D13   D(2,3,4,5)              0.1839         estimate D2E/DX2                !
 ! D14   D(2,3,4,21)          -179.9227         estimate D2E/DX2                !
 ! D15   D(23,3,4,5)          -179.8326         estimate D2E/DX2                !
 ! D16   D(23,3,4,21)            0.0609         estimate D2E/DX2                !
 ! D17   D(2,3,23,8)          -179.9531         estimate D2E/DX2                !
 ! D18   D(4,3,23,8)             0.0639         estimate D2E/DX2                !
 ! D19   D(3,4,5,6)             -0.0283         estimate D2E/DX2                !
 ! D20   D(3,4,5,16)          -179.98           estimate D2E/DX2                !
 ! D21   D(21,4,5,6)          -179.9193         estimate D2E/DX2                !
 ! D22   D(21,4,5,16)            0.129          estimate D2E/DX2                !
 ! D23   D(3,4,21,7)            -0.0966         estimate D2E/DX2                !
 ! D24   D(3,4,21,22)          179.9056         estimate D2E/DX2                !
 ! D25   D(5,4,21,7)           179.7937         estimate D2E/DX2                !
 ! D26   D(5,4,21,22)           -0.2042         estimate D2E/DX2                !
 ! D27   D(4,5,6,1)             -0.0673         estimate D2E/DX2                !
 ! D28   D(4,5,6,17)          -179.9728         estimate D2E/DX2                !
 ! D29   D(16,5,6,1)           179.8829         estimate D2E/DX2                !
 ! D30   D(16,5,6,17)           -0.0226         estimate D2E/DX2                !
 ! D31   D(13,7,8,9)            -0.0041         estimate D2E/DX2                !
 ! D32   D(13,7,8,23)         -179.9538         estimate D2E/DX2                !
 ! D33   D(21,7,8,9)          -179.9353         estimate D2E/DX2                !
 ! D34   D(21,7,8,23)            0.115          estimate D2E/DX2                !
 ! D35   D(8,7,13,12)           -0.0189         estimate D2E/DX2                !
 ! D36   D(8,7,13,20)          179.9695         estimate D2E/DX2                !
 ! D37   D(21,7,13,12)         179.9107         estimate D2E/DX2                !
 ! D38   D(21,7,13,20)          -0.1009         estimate D2E/DX2                !
 ! D39   D(8,7,21,4)             0.0089         estimate D2E/DX2                !
 ! D40   D(8,7,21,22)         -179.9932         estimate D2E/DX2                !
 ! D41   D(13,7,21,4)         -179.9202         estimate D2E/DX2                !
 ! D42   D(13,7,21,22)           0.0776         estimate D2E/DX2                !
 ! D43   D(7,8,9,10)           179.9455         estimate D2E/DX2                !
 ! D44   D(7,8,9,11)             0.065          estimate D2E/DX2                !
 ! D45   D(23,8,9,10)           -0.106          estimate D2E/DX2                !
 ! D46   D(23,8,9,11)         -179.9865         estimate D2E/DX2                !
 ! D47   D(7,8,23,3)            -0.1515         estimate D2E/DX2                !
 ! D48   D(9,8,23,3)           179.9003         estimate D2E/DX2                !
 ! D49   D(8,9,11,12)           -0.1018         estimate D2E/DX2                !
 ! D50   D(8,9,11,18)          179.9569         estimate D2E/DX2                !
 ! D51   D(10,9,11,12)        -179.9786         estimate D2E/DX2                !
 ! D52   D(10,9,11,18)           0.0801         estimate D2E/DX2                !
 ! D53   D(9,11,12,13)           0.078          estimate D2E/DX2                !
 ! D54   D(9,11,12,19)         179.9999         estimate D2E/DX2                !
 ! D55   D(18,11,12,13)       -179.9793         estimate D2E/DX2                !
 ! D56   D(18,11,12,19)         -0.0574         estimate D2E/DX2                !
 ! D57   D(11,12,13,7)          -0.0166         estimate D2E/DX2                !
 ! D58   D(11,12,13,20)        179.9954         estimate D2E/DX2                !
 ! D59   D(19,12,13,7)        -179.9366         estimate D2E/DX2                !
 ! D60   D(19,12,13,20)          0.0754         estimate D2E/DX2                !
 --------------------------------------------------------------------------------
 Trust Radius=3.00D-01 FncErr=1.00D-07 GrdErr=1.00D-06 EigMax=2.50D+02 EigMin=1.00D-04
 Number of steps in this run=    138 maximum allowed number of steps=    138.
 GradGradGradGradGradGradGradGradGradGradGradGradGradGradGradGradGradGrad

 Leave Link  103 at Tue Jul  9 16:31:18 2024, MaxMem=  2684354560 cpu:               0.1 elap:               0.0
 (Enter /mnt/data/applications/G16/g16/l202.exe)
                          Input orientation:                          
 ---------------------------------------------------------------------
 Center     Atomic      Atomic             Coordinates (Angstroms)
 Number     Number       Type             X           Y           Z
 ---------------------------------------------------------------------
      1          6           0       -8.397083   -1.407744   -0.012916
      2          6           0       -7.032460   -1.407744   -0.012916
      3          6           0       -6.299569   -0.176523   -0.012916
      4          6           0       -7.023566    1.055224   -0.018434
      5          6           0       -8.455806    1.013733   -0.019734
      6          6           0       -9.119589   -0.178560   -0.016363
      7          6           0       -4.924248    2.289275   -0.014530
      8          6           0       -4.200279    1.057572   -0.007110
      9          6           0       -2.768097    1.099196    0.000000
     10          1           0       -2.222227    0.143669    0.006601
     11          6           0       -2.104360    2.291551    0.001042
     12          6           0       -2.826843    3.520666   -0.007130
     13          6           0       -4.191486    3.520521   -0.014497
     14          1           0       -8.962955   -2.351022   -0.010512
     15          1           0       -6.463134   -2.349478   -0.009810
     16          1           0       -9.001619    1.969279   -0.024338
     17          1           0      -10.218987   -0.214725   -0.017794
     18          1           0       -1.004954    2.327455    0.007202
     19          1           0       -2.260763    4.463843   -0.006035
     20          1           0       -4.761029    4.462138   -0.020769
     21          6           0       -6.323189    2.266391   -0.020155
     22          8           0       -6.945173    3.324408   -0.026655
     23         16           0       -4.900668   -0.153634   -0.008020
 ---------------------------------------------------------------------
                    Distance matrix (angstroms):
                    1          2          3          4          5
     1  C    0.000000
     2  C    1.364623   0.000000
     3  C    2.432174   1.432841   0.000000
     4  C    2.820069   2.462990   1.428777   0.000000
     5  C    2.422199   2.808827   2.462948   1.432841   0.000000
     6  C    1.425805   2.422192   2.820023   2.432188   1.364618
     7  C    5.072330   4.255879   2.823415   2.435166   3.754855
     8  C    4.867338   3.754872   2.435168   2.823311   4.255772
     9  C    6.162013   4.946686   3.754853   4.255736   5.688385
    10  H    6.366797   5.054266   4.089942   4.887168   6.294062
    11  C    7.299544   6.162073   4.867377   5.072225   6.478743
    12  C    7.437529   6.478925   5.072383   4.867342   6.161988
    13  C    6.478800   5.688491   4.255837   3.754781   4.946558
    14  H    1.099996   2.148625   3.438325   3.919669   3.402773
    15  H    2.151054   1.100457   2.179105   3.450530   3.909224
    16  H    3.430726   3.909220   3.450460   2.179042   1.100455
    17  H    2.177763   3.402539   3.919607   3.438530   2.148935
    18  H    8.282251   7.091047   5.856898   6.151660   7.565830
    19  H    8.492939   7.566021   6.151829   5.856887   7.090980
    20  H    6.904815   6.294043   4.887161   4.089761   5.053996
    21  C    4.219047   3.741976   2.443039   1.399091   2.473299
    22  O    4.949898   4.732977   3.559988   2.270552   2.760666
    23  S    3.714530   2.473328   1.399097   2.442978   3.741910
                    6          7          8          9         10
     6  C    0.000000
     7  C    4.867350   0.000000
     8  C    5.072250   1.428733   0.000000
     9  C    6.478764   2.462821   1.432804   0.000000
    10  H    6.904923   3.450361   2.179013   1.100477   0.000000
    11  C    7.437418   2.819932   2.432210   1.364646   2.151121
    12  C    7.299521   2.432177   2.820134   2.422193   3.430723
    13  C    6.161932   1.432797   2.462976   2.808747   3.909163
    14  H    2.178109   6.151709   5.856757   7.090866   7.187572
    15  H    3.430697   4.887353   4.090050   5.054379   4.919486
    16  H    2.151091   4.089920   4.887164   6.294000   7.020966
    17  H    1.099994   5.856986   6.151723   7.565875   8.004824
    18  H    8.492819   3.919540   3.438446   2.148801   2.500135
    19  H    8.282240   3.438455   3.919746   3.402686   4.320364
    20  H    6.366564   2.178994   3.450463   3.909167   5.009535
    21  C    3.714519   1.399139   2.442982   3.741848   4.617852
    22  O    4.122981   2.270636   3.559968   4.732890   5.694246
    23  S    4.219003   2.443031   1.399130   2.473359   2.694930
                   11         12         13         14         15
    11  C    0.000000
    12  C    1.425753   0.000000
    13  C    2.422128   1.364663   0.000000
    14  H    8.282146   8.492856   7.565841   0.000000
    15  H    6.366960   6.905158   6.294227   2.499822   0.000000
    16  H    6.904831   6.366707   5.054090   4.320496   5.009569
    17  H    8.492876   8.282334   7.091040   2.478192   4.320147
    18  H    1.100009   2.177897   3.402626   9.231373   7.187887
    19  H    2.177927   1.100014   2.148865   9.558336   8.005078
    20  H    3.430716   2.151193   1.100482   8.004713   7.021068
    21  C    4.218957   3.714540   2.473263   5.318737   4.618002
    22  O    4.949852   4.123051   2.760689   6.023471   5.694350
    23  S    3.714613   4.219151   3.741978   4.618517   2.695002
                   16         17         18         19         20
    16  H    0.000000
    17  H    2.500380   0.000000
    18  H    8.004745   9.558332   0.000000
    19  H    7.187651   9.231601   2.478182   0.000000
    20  H    4.919041   7.187653   4.320388   2.500310   0.000000
    21  C    2.694862   4.618786   5.318656   4.618690   2.694745
    22  O    2.462792   4.821140   6.023394   4.821042   2.462712
    23  S    4.617881   5.318679   4.618725   5.318853   4.617901
                   21         22         23
    21  C    0.000000
    22  O    1.227317   0.000000
    23  S    2.807175   4.034492   0.000000
 Symmetry turned off by external request.
 Stoichiometry    C13H8OS
 Framework group  C1[X(C13H8OS)]
 Deg. of freedom    63
 Full point group                 C1      NOp   1
 Rotational constants (GHZ):           1.3605522           0.4534726           0.3401135
 Leave Link  202 at Tue Jul  9 16:31:18 2024, MaxMem=  2684354560 cpu:               0.1 elap:               0.0
 (Enter /mnt/data/applications/G16/g16/l301.exe)
 General basis read from cards:  (5D, 7F)
 Centers:       1      2      3      4      5      6      7      8      9     11
 Centers:      12     13     21     10     14     15     16     17     18     19
 Centers:      20     22     23
 cc-pVTZ
 ****
 ======================================================================================================
                                       Pseudopotential Parameters
 ======================================================================================================
  Center     Atomic      Valence      Angular      Power
  Number     Number     Electrons     Momentum     of R      Exponent        Coefficient   SO-Coeffient
 ======================================================================================================
    1          6
                                   No pseudopotential on this center.
    2          6
                                   No pseudopotential on this center.
    3          6
                                   No pseudopotential on this center.
    4          6
                                   No pseudopotential on this center.
    5          6
                                   No pseudopotential on this center.
    6          6
                                   No pseudopotential on this center.
    7          6
                                   No pseudopotential on this center.
    8          6
                                   No pseudopotential on this center.
    9          6
                                   No pseudopotential on this center.
   10          1
                                   No pseudopotential on this center.
   11          6
                                   No pseudopotential on this center.
   12          6
                                   No pseudopotential on this center.
   13          6
                                   No pseudopotential on this center.
   14          1
                                   No pseudopotential on this center.
   15          1
                                   No pseudopotential on this center.
   16          1
                                   No pseudopotential on this center.
   17          1
                                   No pseudopotential on this center.
   18          1
                                   No pseudopotential on this center.
   19          1
                                   No pseudopotential on this center.
   20          1
                                   No pseudopotential on this center.
   21          6
                                   No pseudopotential on this center.
   22          8
                                   No pseudopotential on this center.
   23         16
                                   No pseudopotential on this center.
 ======================================================================================================
 Ernie: Thresh=  0.10000D-02 Tol=  0.10000D-05 Strict=F.
 Ernie:  55 primitive shells out of 488 were deleted.
   566 basis functions,   958 primitive gaussians,   649 cartesian basis functions
    55 alpha electrons       55 beta electrons
       nuclear repulsion energy      1036.1101087816 Hartrees.
 IExCor=  402 DFT=T Ex+Corr=B3LYP ExCW=0 ScaHFX=  0.200000
 ScaDFX=  0.800000  0.720000  1.000000  0.810000 ScalE2=  1.000000  1.000000
 IRadAn=      5 IRanWt=     -1 IRanGd=            0 ICorTp=0 IEmpDi=141
 NAtoms=   23 NActive=   23 NUniq=   23 SFac= 1.00D+00 NAtFMM=   60 NAOKFM=F Big=F
 Integral buffers will be    131072 words long.
 Raffenetti 2 integral format.
 Two-electron integral symmetry is turned off.
 R6Disp:  Grimme-D3(BJ) Dispersion energy=       -0.0585400604 Hartrees.
 Nuclear repulsion after empirical dispersion term =     1036.0515687212 Hartrees.
 ------------------------------------------------------------------------------
 Polarizable Continuum Model (PCM)
 =================================
 Model                : PCM.
 Atomic radii         : UFF (Universal Force Field).
 Polarization charges : Total charges.
 Charge compensation  : None.
 Solution method      : On-the-fly selection.
 Cavity type          : Scaled VdW (van der Waals Surface) (Alpha=1.100).
 Cavity algorithm     : GePol (No added spheres)
                        Default sphere list used, NSphG=   23.
                        Lebedev-Laikov grids with approx.  5.0 points / Ang**2.
                        Smoothing algorithm: York/Karplus (Gamma=1.0000).
                        Polarization charges: spherical gaussians, with
                                              point-specific exponents (IZeta= 3).
                        Self-potential: point-specific (ISelfS= 7).
                        Self-field    : sphere-specific E.n sum rule (ISelfD= 2).
 1st derivatives      : Analytical E(r).r(x)/FMM algorithm (CHGder, D1EAlg=3).
                        Cavity 1st derivative terms included.
 Solvent              : Acetonitrile, Eps=  35.688000 Eps(inf)=   1.806874
 ------------------------------------------------------------------------------
 GePol: Number of generator spheres                  =      23
 GePol: Total number of spheres                      =      23
 GePol: Number of exposed spheres                    =      23 (100.00%)
 GePol: Number of points                             =    1932
 GePol: Average weight of points                     =       0.13
 GePol: Minimum weight of points                     =   0.36D-10
 GePol: Maximum weight of points                     =    0.20577
 GePol: Number of points with low weight             =      78
 GePol: Fraction of low-weight points (<1% of avg)   =       4.04%
 GePol: Cavity surface area                          =    250.728 Ang**2
 GePol: Cavity volume                                =    268.673 Ang**3
 Leave Link  301 at Tue Jul  9 16:31:18 2024, MaxMem=  2684354560 cpu:               1.9 elap:               0.2
 (Enter /mnt/data/applications/G16/g16/l302.exe)
 NPDir=0 NMtPBC=     1 NCelOv=     1 NCel=       1 NClECP=     1 NCelD=      1
         NCelK=      1 NCelE2=     1 NClLst=     1 CellRange=     0.0.
 One-electron integrals computed using PRISM.
   1 Symmetry operations used in ECPInt.
 ECPInt:  NShTT=   20100 NPrTT=   94680 LenC2=   18480 LenP2D=   57258.
 LDataN:  DoStor=T MaxTD1= 6 Len=  172
 NBasis=   566 RedAO= T EigKep=  2.65D-05  NBF=   566
 NBsUse=   566 1.00D-06 EigRej= -1.00D+00 NBFU=   566
 Precomputing XC quadrature grid using
 IXCGrd= 4 IRadAn=           5 IRanWt=          -1 IRanGd=           0 AccXCQ= 0.00D+00.
 Generated NRdTot=       0 NPtTot=           0 NUsed=           0 NTot=          32
 NSgBfM=   648   648   648   648   648 MxSgAt=    23 MxSgA2=    23.
 Leave Link  302 at Tue Jul  9 16:31:20 2024, MaxMem=  2684354560 cpu:              19.8 elap:               1.7
 (Enter /mnt/data/applications/G16/g16/l303.exe)
 DipDrv:  MaxL=1.
 Leave Link  303 at Tue Jul  9 16:31:20 2024, MaxMem=  2684354560 cpu:               1.5 elap:               0.2
 (Enter /mnt/data/applications/G16/g16/l401.exe)
 ExpMin= 1.03D-01 ExpMax= 3.74D+05 ExpMxC= 1.18D+03 IAcc=3 IRadAn=         5 AccDes= 0.00D+00
 Harris functional with IExCor=  402 and IRadAn=       5 diagonalized for initial guess.
 HarFok:  IExCor=  402 AccDes= 0.00D+00 IRadAn=         5 IDoV= 1 UseB2=F ITyADJ=14
 ICtDFT=  3500011 ScaDFX=  1.000000  1.000000  1.000000  1.000000
 FoFCou: FMM=F IPFlag=           0 FMFlag=      100000 FMFlg1=           0
         NFxFlg=           0 DoJE=T BraDBF=F KetDBF=T FulRan=T
         wScrn=  0.000000 ICntrl=       500 IOpCl=  0 I1Cent=   200000004 NGrid=           0
         NMat0=    1 NMatS0=      1 NMatT0=    0 NMatD0=    1 NMtDS0=    0 NMtDT0=    0
 Symmetry not used in FoFCou.
 Harris En= -973.742868101026    
 JPrj=0 DoOrth=F DoCkMO=F.
 Leave Link  401 at Tue Jul  9 16:31:29 2024, MaxMem=  2684354560 cpu:             107.3 elap:               9.0
 (Enter /mnt/data/applications/G16/g16/l502.exe)
 Two-electron integral symmetry not used.
 Closed shell SCF:
 Using DIIS extrapolation, IDIIS=  1040.
 NGot=  2684354560 LenX=  2683500286 LenY=  2683078436
 Requested convergence on RMS density matrix=1.00D-08 within 128 cycles.
 Requested convergence on MAX density matrix=1.00D-06.
 Requested convergence on             energy=1.00D-06.
 No special actions if energy rises.
 Fock matrices will be formed incrementally for  20 cycles.

 Cycle   1  Pass 1  IDiag  1:
 FoFJK:  IHMeth= 1 ICntrl=       0 DoSepK=F KAlg= 0 I1Cent=           0 FoldK=F
 IRaf= 860000000 NMat=       1 IRICut=       1 DoRegI=T DoRafI=F ISym2E= 0 IDoP0=0 IntGTp=1.
 FoFCou: FMM=F IPFlag=           0 FMFlag=      100000 FMFlg1=           0
         NFxFlg=           0 DoJE=F BraDBF=F KetDBF=F FulRan=T
         wScrn=  0.000000 ICntrl=         0 IOpCl=  0 I1Cent=           0 NGrid=           0
         NMat0=    1 NMatS0=      1 NMatT0=    0 NMatD0=    1 NMtDS0=    0 NMtDT0=    0
 Symmetry not used in FoFCou.
 Inv3:  Mode=1 IEnd=    11197872.
 Iteration    1 A*A^-1 deviation from unit magnitude is 2.44D-15 for    579.
 Iteration    1 A*A^-1 deviation from orthogonality  is 1.72D-15 for   1131    209.
 Iteration    1 A^-1*A deviation from unit magnitude is 2.44D-15 for    579.
 Iteration    1 A^-1*A deviation from orthogonality  is 1.80D-15 for   1579    380.
 E= -973.324635988685    
 DIIS: error= 3.17D-02 at cycle   1 NSaved=   1.
 NSaved= 1 IEnMin= 1 EnMin= -973.324635988685     IErMin= 1 ErrMin= 3.17D-02
 ErrMax= 3.17D-02  0.00D+00 EMaxC= 1.00D-01 BMatC= 4.51D-01 BMatP= 4.51D-01
 IDIUse=3 WtCom= 6.83D-01 WtEn= 3.17D-01
 Coeff-Com:  0.100D+01
 Coeff-En:   0.100D+01
 Coeff:      0.100D+01
 Gap=     0.144 Goal=   None    Shift=    0.000
 GapD=    0.144 DampG=1.000 DampE=0.500 DampFc=0.5000 IDamp=-1.
 Damping current iteration by 5.00D-01
 RMSDP=1.45D-02 MaxDP=1.45D+00              OVMax= 4.59D-01

 Cycle   2  Pass 1  IDiag  1:
 RMSU=  7.23D-03    CP:  1.06D+00
 E= -973.458255366389     Delta-E=       -0.133619377704 Rises=F Damp=T
 DIIS: error= 7.55D-03 at cycle   2 NSaved=   2.
 NSaved= 2 IEnMin= 2 EnMin= -973.458255366389     IErMin= 2 ErrMin= 7.55D-03
 ErrMax= 7.55D-03  0.00D+00 EMaxC= 1.00D-01 BMatC= 5.76D-02 BMatP= 4.51D-01
 IDIUse=3 WtCom= 9.24D-01 WtEn= 7.55D-02
 Coeff-Com:  0.144D+00 0.856D+00
 Coeff-En:   0.264D+00 0.736D+00
 Coeff:      0.153D+00 0.847D+00
 Gap=     0.234 Goal=   None    Shift=    0.000
 RMSDP=6.06D-03 MaxDP=6.04D-01 DE=-1.34D-01 OVMax= 2.94D-01

 Cycle   3  Pass 1  IDiag  1:
 RMSU=  1.36D-03    CP:  1.02D+00  1.84D-01
 E= -973.658176626196     Delta-E=       -0.199921259807 Rises=F Damp=F
 DIIS: error= 1.81D-02 at cycle   3 NSaved=   3.
 NSaved= 3 IEnMin= 3 EnMin= -973.658176626196     IErMin= 2 ErrMin= 7.55D-03
 ErrMax= 1.81D-02  0.00D+00 EMaxC= 1.00D-01 BMatC= 7.77D-02 BMatP= 5.76D-02
 IDIUse=2 WtCom= 0.00D+00 WtEn= 1.00D+00
 Coeff-En:   0.000D+00 0.000D+00 0.100D+01
 Coeff:      0.000D+00 0.000D+00 0.100D+01
 Gap=     0.140 Goal=   None    Shift=    0.000
 RMSDP=6.04D-03 MaxDP=5.98D-01 DE=-2.00D-01 OVMax= 4.21D-01

 Cycle   4  Pass 1  IDiag  1:
 RMSU=  1.30D-03    CP:  1.06D+00  9.88D-01  2.95D-01
 E= -973.355290661644     Delta-E=        0.302885964553 Rises=F Damp=F
 DIIS: error= 3.21D-02 at cycle   4 NSaved=   4.
 NSaved= 4 IEnMin= 3 EnMin= -973.658176626196     IErMin= 2 ErrMin= 7.55D-03
 ErrMax= 3.21D-02  0.00D+00 EMaxC= 1.00D-01 BMatC= 4.35D-01 BMatP= 5.76D-02
 IDIUse=2 WtCom= 0.00D+00 WtEn= 1.00D+00
 Coeff-En:   0.000D+00 0.000D+00 0.802D+00 0.198D+00
 Coeff:      0.000D+00 0.000D+00 0.802D+00 0.198D+00
 Gap=     0.136 Goal=   None    Shift=    0.000
 RMSDP=4.13D-03 MaxDP=4.29D-01 DE= 3.03D-01 OVMax= 1.94D-01

 Cycle   5  Pass 1  IDiag  1:
 RMSU=  2.74D-04    CP:  1.03D+00  4.29D-01  6.92D-01  5.95D-01
 E= -973.693076135198     Delta-E=       -0.337785473554 Rises=F Damp=F
 DIIS: error= 1.08D-02 at cycle   5 NSaved=   5.
 NSaved= 5 IEnMin= 5 EnMin= -973.693076135198     IErMin= 2 ErrMin= 7.55D-03
 ErrMax= 1.08D-02  0.00D+00 EMaxC= 1.00D-01 BMatC= 3.40D-02 BMatP= 5.76D-02
 IDIUse=3 WtCom= 8.92D-01 WtEn= 1.08D-01
 Coeff-Com:  0.909D-03 0.201D-01 0.305D+00-0.939D-01 0.768D+00
 Coeff-En:   0.000D+00 0.000D+00 0.348D+00 0.000D+00 0.652D+00
 Coeff:      0.811D-03 0.179D-01 0.309D+00-0.838D-01 0.756D+00
 Gap=     0.144 Goal=   None    Shift=    0.000
 RMSDP=8.97D-04 MaxDP=8.26D-02 DE=-3.38D-01 OVMax= 6.51D-02

 Cycle   6  Pass 1  IDiag  1:
 RMSU=  4.76D-05    CP:  1.02D+00  3.15D-01  8.28D-01  3.74D-01  7.13D-01
 E= -973.720210837041     Delta-E=       -0.027134701843 Rises=F Damp=F
 DIIS: error= 9.45D-04 at cycle   6 NSaved=   6.
 NSaved= 6 IEnMin= 6 EnMin= -973.720210837041     IErMin= 6 ErrMin= 9.45D-04
 ErrMax= 9.45D-04  0.00D+00 EMaxC= 1.00D-01 BMatC= 2.06D-04 BMatP= 3.40D-02
 IDIUse=3 WtCom= 9.91D-01 WtEn= 9.45D-03
 Coeff-Com:  0.410D-03 0.761D-02 0.160D+00-0.596D-01 0.444D+00 0.448D+00
 Coeff-En:   0.000D+00 0.000D+00 0.000D+00 0.000D+00 0.000D+00 0.100D+01
 Coeff:      0.406D-03 0.754D-02 0.158D+00-0.590D-01 0.439D+00 0.453D+00
 Gap=     0.136 Goal=   None    Shift=    0.000
 RMSDP=3.60D-05 MaxDP=2.28D-03 DE=-2.71D-02 OVMax= 5.94D-03

 Cycle   7  Pass 1  IDiag  1:
 RMSU=  1.83D-05    CP:  1.02D+00  3.15D-01  8.16D-01  3.85D-01  7.64D-01
                    CP:  6.57D-01
 E= -973.720399627846     Delta-E=       -0.000188790805 Rises=F Damp=F
 DIIS: error= 3.04D-04 at cycle   7 NSaved=   7.
 NSaved= 7 IEnMin= 7 EnMin= -973.720399627846     IErMin= 7 ErrMin= 3.04D-04
 ErrMax= 3.04D-04  0.00D+00 EMaxC= 1.00D-01 BMatC= 2.83D-05 BMatP= 2.06D-04
 IDIUse=3 WtCom= 9.97D-01 WtEn= 3.04D-03
 Coeff-Com:  0.139D-02-0.358D-02 0.244D-01-0.916D-02 0.577D-01 0.187D+00
 Coeff-Com:  0.742D+00
 Coeff-En:   0.000D+00 0.000D+00 0.000D+00 0.000D+00 0.000D+00 0.752D-01
 Coeff-En:   0.925D+00
 Coeff:      0.138D-02-0.357D-02 0.244D-01-0.914D-02 0.575D-01 0.187D+00
 Coeff:      0.743D+00
 Gap=     0.136 Goal=   None    Shift=    0.000
 RMSDP=2.63D-05 MaxDP=2.11D-03 DE=-1.89D-04 OVMax= 1.68D-03

 Cycle   8  Pass 1  IDiag  1:
 RMSU=  5.70D-06    CP:  1.02D+00  3.12D-01  8.22D-01  3.78D-01  7.39D-01
                    CP:  7.40D-01  8.60D-01
 E= -973.720427489293     Delta-E=       -0.000027861447 Rises=F Damp=F
 DIIS: error= 5.69D-05 at cycle   8 NSaved=   8.
 NSaved= 8 IEnMin= 8 EnMin= -973.720427489293     IErMin= 8 ErrMin= 5.69D-05
 ErrMax= 5.69D-05  0.00D+00 EMaxC= 1.00D-01 BMatC= 1.24D-06 BMatP= 2.83D-05
 IDIUse=1 WtCom= 1.00D+00 WtEn= 0.00D+00
 Coeff-Com:  0.819D-03-0.224D-02 0.602D-02-0.210D-02 0.976D-02 0.750D-01
 Coeff-Com:  0.378D+00 0.535D+00
 Coeff:      0.819D-03-0.224D-02 0.602D-02-0.210D-02 0.976D-02 0.750D-01
 Coeff:      0.378D+00 0.535D+00
 Gap=     0.136 Goal=   None    Shift=    0.000
 RMSDP=5.23D-06 MaxDP=4.63D-04 DE=-2.79D-05 OVMax= 4.45D-04

 Cycle   9  Pass 1  IDiag  1:
 RMSU=  1.52D-06    CP:  1.02D+00  3.11D-01  8.22D-01  3.77D-01  7.36D-01
                    CP:  7.46D-01  8.82D-01  1.01D+00
 E= -973.720428610964     Delta-E=       -0.000001121671 Rises=F Damp=F
 DIIS: error= 1.75D-05 at cycle   9 NSaved=   9.
 NSaved= 9 IEnMin= 9 EnMin= -973.720428610964     IErMin= 9 ErrMin= 1.75D-05
 ErrMax= 1.75D-05  0.00D+00 EMaxC= 1.00D-01 BMatC= 1.20D-07 BMatP= 1.24D-06
 IDIUse=1 WtCom= 1.00D+00 WtEn= 0.00D+00
 Coeff-Com:  0.195D-03-0.443D-03-0.871D-03 0.237D-03-0.374D-02 0.615D-02
 Coeff-Com:  0.568D-01 0.276D+00 0.666D+00
 Coeff:      0.195D-03-0.443D-03-0.871D-03 0.237D-03-0.374D-02 0.615D-02
 Coeff:      0.568D-01 0.276D+00 0.666D+00
 Gap=     0.136 Goal=   None    Shift=    0.000
 RMSDP=5.57D-07 MaxDP=2.61D-05 DE=-1.12D-06 OVMax= 9.61D-05

 Cycle  10  Pass 1  IDiag  1:
 RMSU=  4.36D-07    CP:  1.02D+00  3.11D-01  8.23D-01  3.77D-01  7.36D-01
                    CP:  7.48D-01  8.82D-01  1.02D+00  8.45D-01
 E= -973.720428725664     Delta-E=       -0.000000114700 Rises=F Damp=F
 DIIS: error= 5.21D-06 at cycle  10 NSaved=  10.
 NSaved=10 IEnMin=10 EnMin= -973.720428725664     IErMin=10 ErrMin= 5.21D-06
 ErrMax= 5.21D-06  0.00D+00 EMaxC= 1.00D-01 BMatC= 5.19D-09 BMatP= 1.20D-07
 IDIUse=1 WtCom= 1.00D+00 WtEn= 0.00D+00
 Coeff-Com:  0.241D-04-0.487D-04-0.772D-03 0.257D-03-0.213D-02-0.132D-02
 Coeff-Com: -0.114D-03 0.780D-01 0.230D+00 0.696D+00
 Coeff:      0.241D-04-0.487D-04-0.772D-03 0.257D-03-0.213D-02-0.132D-02
 Coeff:     -0.114D-03 0.780D-01 0.230D+00 0.696D+00
 Gap=     0.136 Goal=   None    Shift=    0.000
 RMSDP=2.76D-07 MaxDP=2.41D-05 DE=-1.15D-07 OVMax= 5.04D-05

 Cycle  11  Pass 1  IDiag  1:
 RMSU=  1.21D-07    CP:  1.02D+00  3.11D-01  8.23D-01  3.77D-01  7.35D-01
                    CP:  7.49D-01  8.82D-01  1.03D+00  8.73D-01  9.18D-01
 E= -973.720428727905     Delta-E=       -0.000000002241 Rises=F Damp=F
 DIIS: error= 2.79D-06 at cycle  11 NSaved=  11.
 NSaved=11 IEnMin=11 EnMin= -973.720428727905     IErMin=11 ErrMin= 2.79D-06
 ErrMax= 2.79D-06  0.00D+00 EMaxC= 1.00D-01 BMatC= 2.67D-09 BMatP= 5.19D-09
 IDIUse=1 WtCom= 1.00D+00 WtEn= 0.00D+00
 Coeff-Com: -0.159D-04 0.353D-04-0.272D-03 0.860D-04-0.459D-03-0.128D-02
 Coeff-Com: -0.857D-02 0.927D-02 0.433D-01 0.468D+00 0.490D+00
 Coeff:     -0.159D-04 0.353D-04-0.272D-03 0.860D-04-0.459D-03-0.128D-02
 Coeff:     -0.857D-02 0.927D-02 0.433D-01 0.468D+00 0.490D+00
 Gap=     0.136 Goal=   None    Shift=    0.000
 RMSDP=2.61D-07 MaxDP=2.27D-05 DE=-2.24D-09 OVMax= 3.49D-05

 Cycle  12  Pass 1  IDiag  1:
 RMSU=  4.58D-08    CP:  1.02D+00  3.11D-01  8.23D-01  3.77D-01  7.35D-01
                    CP:  7.49D-01  8.81D-01  1.04D+00  8.75D-01  1.01D+00
                    CP:  6.17D-01
 E= -973.720428730864     Delta-E=       -0.000000002959 Rises=F Damp=F
 DIIS: error= 6.09D-07 at cycle  12 NSaved=  12.
 NSaved=12 IEnMin=12 EnMin= -973.720428730864     IErMin=12 ErrMin= 6.09D-07
 ErrMax= 6.09D-07  0.00D+00 EMaxC= 1.00D-01 BMatC= 6.52D-11 BMatP= 2.67D-09
 IDIUse=1 WtCom= 1.00D+00 WtEn= 0.00D+00
 Coeff-Com: -0.772D-05 0.138D-04-0.166D-04 0.516D-05 0.536D-04-0.185D-03
 Coeff-Com: -0.244D-02-0.487D-02-0.135D-01 0.591D-01 0.158D+00 0.804D+00
 Coeff:     -0.772D-05 0.138D-04-0.166D-04 0.516D-05 0.536D-04-0.185D-03
 Coeff:     -0.244D-02-0.487D-02-0.135D-01 0.591D-01 0.158D+00 0.804D+00
 Gap=     0.136 Goal=   None    Shift=    0.000
 RMSDP=4.86D-08 MaxDP=3.81D-06 DE=-2.96D-09 OVMax= 4.42D-06

 Cycle  13  Pass 1  IDiag  1:
 RMSU=  1.35D-08    CP:  1.02D+00  3.11D-01  8.23D-01  3.77D-01  7.35D-01
                    CP:  7.49D-01  8.81D-01  1.04D+00  8.78D-01  1.03D+00
                    CP:  6.65D-01  1.06D+00
 E= -973.720428730968     Delta-E=       -0.000000000104 Rises=F Damp=F
 DIIS: error= 1.18D-07 at cycle  13 NSaved=  13.
 NSaved=13 IEnMin=13 EnMin= -973.720428730968     IErMin=13 ErrMin= 1.18D-07
 ErrMax= 1.18D-07  0.00D+00 EMaxC= 1.00D-01 BMatC= 9.29D-12 BMatP= 6.52D-11
 IDIUse=1 WtCom= 1.00D+00 WtEn= 0.00D+00
 Coeff-Com: -0.222D-05 0.443D-05 0.478D-05-0.198D-05 0.344D-04-0.172D-04
 Coeff-Com: -0.424D-03-0.276D-02-0.980D-02-0.138D-01 0.391D-01 0.390D+00
 Coeff-Com:  0.598D+00
 Coeff:     -0.222D-05 0.443D-05 0.478D-05-0.198D-05 0.344D-04-0.172D-04
 Coeff:     -0.424D-03-0.276D-02-0.980D-02-0.138D-01 0.391D-01 0.390D+00
 Coeff:      0.598D+00
 Gap=     0.136 Goal=   None    Shift=    0.000
 RMSDP=1.46D-08 MaxDP=1.19D-06 DE=-1.04D-10 OVMax= 1.05D-06

 Cycle  14  Pass 1  IDiag  1:
 RMSU=  3.49D-09    CP:  1.02D+00  3.11D-01  8.23D-01  3.77D-01  7.35D-01
                    CP:  7.49D-01  8.81D-01  1.04D+00  8.78D-01  1.03D+00
                    CP:  6.81D-01  1.08D+00  7.47D-01
 E= -973.720428730996     Delta-E=       -0.000000000028 Rises=F Damp=F
 DIIS: error= 5.25D-08 at cycle  14 NSaved=  14.
 NSaved=14 IEnMin=14 EnMin= -973.720428730996     IErMin=14 ErrMin= 5.25D-08
 ErrMax= 5.25D-08  0.00D+00 EMaxC= 1.00D-01 BMatC= 9.64D-13 BMatP= 9.29D-12
 IDIUse=1 WtCom= 1.00D+00 WtEn= 0.00D+00
 Coeff-Com: -0.437D-06 0.117D-05 0.584D-05-0.224D-05 0.182D-04 0.485D-05
 Coeff-Com: -0.280D-04-0.104D-02-0.403D-02-0.105D-01 0.836D-02 0.118D+00
 Coeff-Com:  0.285D+00 0.605D+00
 Coeff:     -0.437D-06 0.117D-05 0.584D-05-0.224D-05 0.182D-04 0.485D-05
 Coeff:     -0.280D-04-0.104D-02-0.403D-02-0.105D-01 0.836D-02 0.118D+00
 Coeff:      0.285D+00 0.605D+00
 Gap=     0.136 Goal=   None    Shift=    0.000
 RMSDP=3.17D-09 MaxDP=2.36D-07 DE=-2.77D-11 OVMax= 3.10D-07

 Error on total polarization charges =  0.01574
 SCF Done:  E(RB3LYP) =  -973.720428731     A.U. after   14 cycles
            NFock= 14  Conv=0.32D-08     -V/T= 2.0030
 KE= 9.708500088334D+02 PE=-4.357130119670D+03 EE= 1.376508113384D+03
 Leave Link  502 at Tue Jul  9 16:45:56 2024, MaxMem=  2684354560 cpu:           10354.5 elap:             867.2
 (Enter /mnt/data/applications/G16/g16/l601.exe)
 Copying SCF densities to generalized density rwf, IOpCl= 0 IROHF=0.

 **********************************************************************

            Population analysis using the SCF density.

 **********************************************************************

 Alpha  occ. eigenvalues --  -88.90019 -19.07600 -10.23534 -10.21531 -10.21531
 Alpha  occ. eigenvalues --  -10.20488 -10.20487 -10.20054 -10.20054 -10.19807
 Alpha  occ. eigenvalues --  -10.19806 -10.19466 -10.19466 -10.19247 -10.19246
 Alpha  occ. eigenvalues --   -7.97965  -5.94194  -5.93610  -5.93534  -1.02501
 Alpha  occ. eigenvalues --   -0.98930  -0.88426  -0.84929  -0.79770  -0.79580
 Alpha  occ. eigenvalues --   -0.76834  -0.73255  -0.67017  -0.66901  -0.61675
 Alpha  occ. eigenvalues --   -0.59356  -0.56797  -0.55905  -0.51151  -0.50043
 Alpha  occ. eigenvalues --   -0.48292  -0.48092  -0.47920  -0.44807  -0.44347
 Alpha  occ. eigenvalues --   -0.44224  -0.41644  -0.39782  -0.39632  -0.39628
 Alpha  occ. eigenvalues --   -0.37921  -0.37072  -0.36428  -0.34644  -0.31166
 Alpha  occ. eigenvalues --   -0.29501  -0.27454  -0.27035  -0.24704  -0.20953
 Alpha virt. eigenvalues --   -0.07357  -0.06724  -0.02445   0.00224   0.04406
 Alpha virt. eigenvalues --    0.04863   0.05248   0.06636   0.07720   0.08557
 Alpha virt. eigenvalues --    0.09592   0.10549   0.11101   0.11560   0.12112
 Alpha virt. eigenvalues --    0.14626   0.15912   0.16339   0.19788   0.20638
 Alpha virt. eigenvalues --    0.21120   0.21304   0.22822   0.24319   0.24357
 Alpha virt. eigenvalues --    0.24470   0.25841   0.26293   0.26699   0.27001
 Alpha virt. eigenvalues --    0.28862   0.29728   0.29905   0.30826   0.30997
 Alpha virt. eigenvalues --    0.31642   0.33034   0.33205   0.33339   0.34325
 Alpha virt. eigenvalues --    0.34720   0.36116   0.36321   0.36639   0.36682
 Alpha virt. eigenvalues --    0.37159   0.38462   0.38968   0.39112   0.39222
 Alpha virt. eigenvalues --    0.40846   0.41793   0.41805   0.43195   0.43241
 Alpha virt. eigenvalues --    0.43737   0.44432   0.45708   0.45722   0.46666
 Alpha virt. eigenvalues --    0.47115   0.47361   0.47773   0.48049   0.50228
 Alpha virt. eigenvalues --    0.52278   0.53624   0.53910   0.55288   0.55633
 Alpha virt. eigenvalues --    0.55842   0.55981   0.56596   0.57439   0.57809
 Alpha virt. eigenvalues --    0.58757   0.59005   0.61120   0.61882   0.63571
 Alpha virt. eigenvalues --    0.64672   0.64973   0.67048   0.68119   0.68449
 Alpha virt. eigenvalues --    0.69680   0.69789   0.70792   0.71031   0.71108
 Alpha virt. eigenvalues --    0.73324   0.73758   0.74866   0.75316   0.75539
 Alpha virt. eigenvalues --    0.77077   0.77528   0.78968   0.80278   0.80627
 Alpha virt. eigenvalues --    0.81712   0.82612   0.83590   0.85458   0.85814
 Alpha virt. eigenvalues --    0.85843   0.86876   0.87253   0.89150   0.89279
 Alpha virt. eigenvalues --    0.91189   0.93012   0.93493   0.94866   0.95919
 Alpha virt. eigenvalues --    0.95978   0.96139   0.97133   0.98019   0.98356
 Alpha virt. eigenvalues --    1.00126   1.01776   1.01992   1.02517   1.02769
 Alpha virt. eigenvalues --    1.02832   1.06695   1.07037   1.07399   1.09945
 Alpha virt. eigenvalues --    1.11037   1.11919   1.12599   1.13981   1.14097
 Alpha virt. eigenvalues --    1.14982   1.15991   1.18746   1.19633   1.20111
 Alpha virt. eigenvalues --    1.20614   1.21470   1.22006   1.23034   1.24161
 Alpha virt. eigenvalues --    1.25094   1.25233   1.26726   1.28125   1.30007
 Alpha virt. eigenvalues --    1.30030   1.30572   1.33114   1.34216   1.34359
 Alpha virt. eigenvalues --    1.35393   1.35522   1.36995   1.37812   1.38076
 Alpha virt. eigenvalues --    1.38855   1.41187   1.41686   1.41800   1.44057
 Alpha virt. eigenvalues --    1.45680   1.45726   1.46592   1.48790   1.49672
 Alpha virt. eigenvalues --    1.51406   1.51433   1.52506   1.53167   1.53647
 Alpha virt. eigenvalues --    1.59784   1.59878   1.63097   1.63931   1.65359
 Alpha virt. eigenvalues --    1.65944   1.67912   1.68293   1.72801   1.73592
 Alpha virt. eigenvalues --    1.78821   1.81921   1.82022   1.83888   1.87376
 Alpha virt. eigenvalues --    1.87810   1.88550   1.89176   1.90851   1.93411
 Alpha virt. eigenvalues --    1.95039   1.96418   1.99549   2.00030   2.01523
 Alpha virt. eigenvalues --    2.02378   2.02618   2.03786   2.04115   2.05699
 Alpha virt. eigenvalues --    2.06821   2.09402   2.10357   2.10750   2.11386
 Alpha virt. eigenvalues --    2.13068   2.15199   2.17975   2.19316   2.19805
 Alpha virt. eigenvalues --    2.22252   2.22289   2.22368   2.22809   2.27977
 Alpha virt. eigenvalues --    2.29142   2.31326   2.33088   2.35160   2.35938
 Alpha virt. eigenvalues --    2.36433   2.37100   2.39679   2.40384   2.40402
 Alpha virt. eigenvalues --    2.43279   2.43418   2.43617   2.44767   2.44930
 Alpha virt. eigenvalues --    2.46090   2.46614   2.46899   2.47836   2.48153
 Alpha virt. eigenvalues --    2.51632   2.54145   2.54642   2.55273   2.55996
 Alpha virt. eigenvalues --    2.56382   2.61053   2.61227   2.61576   2.65230
 Alpha virt. eigenvalues --    2.65755   2.66088   2.66321   2.69312   2.69914
 Alpha virt. eigenvalues --    2.70245   2.70539   2.71309   2.71616   2.72071
 Alpha virt. eigenvalues --    2.73061   2.75901   2.76345   2.77197   2.77934
 Alpha virt. eigenvalues --    2.78133   2.80097   2.80704   2.81636   2.83770
 Alpha virt. eigenvalues --    2.84084   2.84124   2.85320   2.88016   2.88245
 Alpha virt. eigenvalues --    2.89240   2.90065   2.92173   2.92452   2.93722
 Alpha virt. eigenvalues --    2.94693   2.95183   2.95547   2.95653   2.97060
 Alpha virt. eigenvalues --    2.97272   2.97626   2.98525   3.00045   3.01343
 Alpha virt. eigenvalues --    3.01904   3.02288   3.03370   3.04216   3.04273
 Alpha virt. eigenvalues --    3.04495   3.05503   3.06163   3.06430   3.07722
 Alpha virt. eigenvalues --    3.08719   3.10194   3.10831   3.11859   3.12423
 Alpha virt. eigenvalues --    3.15168   3.15247   3.15413   3.15775   3.17743
 Alpha virt. eigenvalues --    3.19213   3.19748   3.19951   3.21397   3.21442
 Alpha virt. eigenvalues --    3.23919   3.24372   3.24781   3.25271   3.29954
 Alpha virt. eigenvalues --    3.30976   3.31610   3.31812   3.31930   3.33129
 Alpha virt. eigenvalues --    3.33512   3.33890   3.35620   3.36218   3.37003
 Alpha virt. eigenvalues --    3.37547   3.37563   3.38452   3.40059   3.41334
 Alpha virt. eigenvalues --    3.42850   3.43517   3.45526   3.48607   3.49451
 Alpha virt. eigenvalues --    3.49761   3.50937   3.51005   3.52480   3.53900
 Alpha virt. eigenvalues --    3.56069   3.59291   3.59293   3.60627   3.61163
 Alpha virt. eigenvalues --    3.62683   3.63294   3.65383   3.66385   3.68331
 Alpha virt. eigenvalues --    3.68674   3.69088   3.72103   3.72221   3.73200
 Alpha virt. eigenvalues --    3.73414   3.75418   3.76043   3.76650   3.79466
 Alpha virt. eigenvalues --    3.79842   3.80095   3.81271   3.82007   3.82567
 Alpha virt. eigenvalues --    3.84148   3.84299   3.86139   3.87061   3.87160
 Alpha virt. eigenvalues --    3.87975   3.90013   3.91028   3.93752   3.93772
 Alpha virt. eigenvalues --    3.94195   3.94849   3.94922   3.96146   3.96759
 Alpha virt. eigenvalues --    4.01535   4.02569   4.03591   4.04635   4.05483
 Alpha virt. eigenvalues --    4.06366   4.07439   4.08364   4.09642   4.09739
 Alpha virt. eigenvalues --    4.11065   4.12769   4.13713   4.14356   4.14723
 Alpha virt. eigenvalues --    4.15792   4.18137   4.18712   4.19770   4.20429
 Alpha virt. eigenvalues --    4.21475   4.24899   4.25974   4.26125   4.26700
 Alpha virt. eigenvalues --    4.27033   4.28445   4.29566   4.32500   4.33247
 Alpha virt. eigenvalues --    4.33406   4.34526   4.35612   4.36366   4.38817
 Alpha virt. eigenvalues --    4.42783   4.42870   4.43130   4.43612   4.48134
 Alpha virt. eigenvalues --    4.51740   4.51918   4.56793   4.57519   4.63921
 Alpha virt. eigenvalues --    4.63975   4.64466   4.65107   4.65545   4.67189
 Alpha virt. eigenvalues --    4.69385   4.70073   4.72860   4.72907   4.76630
 Alpha virt. eigenvalues --    4.76704   4.78545   4.79091   4.82866   4.83565
 Alpha virt. eigenvalues --    4.85809   4.90987   4.92306   4.92516   4.93044
 Alpha virt. eigenvalues --    4.93649   4.94934   4.95533   4.97230   5.02075
 Alpha virt. eigenvalues --    5.05375   5.08260   5.10394   5.11248   5.22415
 Alpha virt. eigenvalues --    5.23064   5.24704   5.27160   5.28288   5.28912
 Alpha virt. eigenvalues --    5.31931   5.37279   5.38204   5.39523   5.42016
 Alpha virt. eigenvalues --    5.53656   5.55210   5.60527   5.66404   5.69375
 Alpha virt. eigenvalues --    5.73372   5.78799   5.79607   5.88777   5.90546
 Alpha virt. eigenvalues --    5.91761   5.98305   6.00625   6.01660   6.18824
 Alpha virt. eigenvalues --    6.26270   6.32264   6.41061   6.42082   6.57374
 Alpha virt. eigenvalues --    6.58786   6.69414   6.87734   6.93013   7.04430
 Alpha virt. eigenvalues --    7.11034   7.22069   9.68290   9.79349  12.05184
 Alpha virt. eigenvalues --   12.17581  12.28009  12.57284  12.87269  13.11616
 Alpha virt. eigenvalues --   13.17084  13.31613  14.20466  14.89270  15.09285
 Alpha virt. eigenvalues --   15.35679
          Condensed to atoms (all electrons):
               1          2          3          4          5          6
     1  C    4.959822   0.476807  -0.001438  -0.086732   0.000946   0.393169
     2  C    0.476807   5.109635   0.337005   0.025090  -0.103220  -0.013980
     3  C   -0.001438   0.337005   4.977197   0.370199  -0.098923  -0.055399
     4  C   -0.086732   0.025090   0.370199   6.292264   0.019546  -0.028526
     5  C    0.000946  -0.103220  -0.098923   0.019546   5.395096   0.425505
     6  C    0.393169  -0.013980  -0.055399  -0.028526   0.425505   5.037634
     7  C    0.000631  -0.000337  -0.090271   0.018271   0.070706  -0.002360
     8  C   -0.001363   0.001634  -0.010979  -0.090152   0.002243   0.001161
     9  C    0.000030  -0.001751   0.001631  -0.000337   0.000609  -0.000011
    10  H   -0.000010  -0.000011   0.002392  -0.000171  -0.000030   0.000003
    11  C    0.000002   0.000030  -0.001362   0.000631  -0.000008  -0.000002
    12  C   -0.000002  -0.000011   0.001159  -0.002363  -0.000052   0.000003
    13  C   -0.000008   0.000609   0.002257   0.070631  -0.008830  -0.000052
    14  H    0.437632  -0.050477   0.009028  -0.001353   0.008256  -0.046386
    15  H   -0.055859   0.446421  -0.065277   0.014107  -0.003000   0.008691
    16  H    0.010173  -0.001741  -0.001517  -0.103563   0.448776  -0.035076
    17  H   -0.046891   0.007166  -0.000332   0.010443  -0.048209   0.432268
    18  H    0.000000  -0.000001  -0.000046   0.000021   0.000000  -0.000000
    19  H   -0.000000   0.000000   0.000005  -0.000024   0.000001   0.000000
    20  H   -0.000002   0.000023   0.000349   0.006758  -0.000903  -0.000008
    21  C   -0.004581   0.011681   0.030651  -0.027040  -0.077932   0.025144
    22  O    0.000190  -0.000202   0.003600  -0.297042   0.061020   0.003770
    23  S    0.015349  -0.134509   0.621300  -0.198896   0.029778  -0.007896
               7          8          9         10         11         12
     1  C    0.000631  -0.001363   0.000030  -0.000010   0.000002  -0.000002
     2  C   -0.000337   0.001634  -0.001751  -0.000011   0.000030  -0.000011
     3  C   -0.090271  -0.010979   0.001631   0.002392  -0.001362   0.001159
     4  C    0.018271  -0.090152  -0.000337  -0.000171   0.000631  -0.002363
     5  C    0.070706   0.002243   0.000609  -0.000030  -0.000008  -0.000052
     6  C   -0.002360   0.001161  -0.000011   0.000003  -0.000002   0.000003
     7  C    6.292649   0.369857   0.025252   0.014126  -0.086871  -0.028294
     8  C    0.369857   4.977687   0.336970  -0.065272  -0.001306  -0.055438
     9  C    0.025252   0.336970   5.109543   0.446469   0.476638  -0.013912
    10  H    0.014126  -0.065272   0.446469   0.546740  -0.055898   0.008692
    11  C   -0.086871  -0.001306   0.476638  -0.055898   4.960006   0.393048
    12  C   -0.028294  -0.055438  -0.013912   0.008692   0.393048   5.037780
    13  C    0.019635  -0.098672  -0.103281  -0.003003   0.001057   0.425308
    14  H    0.000021  -0.000046  -0.000001  -0.000000   0.000000  -0.000000
    15  H   -0.000170   0.002397  -0.000011   0.000087  -0.000010   0.000003
    16  H    0.006763   0.000348   0.000023  -0.000000  -0.000002  -0.000008
    17  H   -0.000024   0.000005   0.000000   0.000000  -0.000000   0.000000
    18  H   -0.001355   0.009018  -0.050457  -0.008758   0.437649  -0.046429
    19  H    0.010450  -0.000333   0.007165  -0.000248  -0.046865   0.432270
    20  H   -0.103358  -0.001480  -0.001745   0.000079   0.010172  -0.035183
    21  C   -0.027257   0.030426   0.011680   0.000915  -0.004585   0.025131
    22  O   -0.296976   0.003611  -0.000202   0.000009   0.000190   0.003757
    23  S   -0.199060   0.621655  -0.134622   0.001742   0.015370  -0.007901
              13         14         15         16         17         18
     1  C   -0.000008   0.437632  -0.055859   0.010173  -0.046891   0.000000
     2  C    0.000609  -0.050477   0.446421  -0.001741   0.007166  -0.000001
     3  C    0.002257   0.009028  -0.065277  -0.001517  -0.000332  -0.000046
     4  C    0.070631  -0.001353   0.014107  -0.103563   0.010443   0.000021
     5  C   -0.008830   0.008256  -0.003000   0.448776  -0.048209   0.000000
     6  C   -0.000052  -0.046386   0.008691  -0.035076   0.432268  -0.000000
     7  C    0.019635   0.000021  -0.000170   0.006763  -0.000024  -0.001355
     8  C   -0.098672  -0.000046   0.002397   0.000348   0.000005   0.009018
     9  C   -0.103281  -0.000001  -0.000011   0.000023   0.000000  -0.050457
    10  H   -0.003003  -0.000000   0.000087  -0.000000   0.000000  -0.008758
    11  C    0.001057   0.000000  -0.000010  -0.000002  -0.000000   0.437649
    12  C    0.425308  -0.000000   0.000003  -0.000008   0.000000  -0.046429
    13  C    5.394961   0.000000  -0.000030  -0.000903   0.000001   0.008261
    14  H    0.000000   0.522825  -0.008760  -0.000200  -0.006423   0.000000
    15  H   -0.000030  -0.008760   0.546789   0.000079  -0.000248  -0.000000
    16  H   -0.000903  -0.000200   0.000079   0.532957  -0.008366  -0.000000
    17  H    0.000001  -0.006423  -0.000248  -0.008366   0.531307  -0.000000
    18  H    0.008261   0.000000  -0.000000  -0.000000  -0.000000   0.522766
    19  H   -0.048240  -0.000000   0.000000   0.000000  -0.000000  -0.006424
    20  H    0.448722  -0.000000  -0.000000  -0.000182   0.000000  -0.000200
    21  C   -0.077862   0.000045   0.000914  -0.002065  -0.000495   0.000045
    22  O    0.060948   0.000001   0.000009   0.032475  -0.000105   0.000001
    23  S    0.029789  -0.000333   0.001773  -0.000583   0.000027  -0.000332
              19         20         21         22         23
     1  C   -0.000000  -0.000002  -0.004581   0.000190   0.015349
     2  C    0.000000   0.000023   0.011681  -0.000202  -0.134509
     3  C    0.000005   0.000349   0.030651   0.003600   0.621300
     4  C   -0.000024   0.006758  -0.027040  -0.297042  -0.198896
     5  C    0.000001  -0.000903  -0.077932   0.061020   0.029778
     6  C    0.000000  -0.000008   0.025144   0.003770  -0.007896
     7  C    0.010450  -0.103358  -0.027257  -0.296976  -0.199060
     8  C   -0.000333  -0.001480   0.030426   0.003611   0.621655
     9  C    0.007165  -0.001745   0.011680  -0.000202  -0.134622
    10  H   -0.000248   0.000079   0.000915   0.000009   0.001742
    11  C   -0.046865   0.010172  -0.004585   0.000190   0.015370
    12  C    0.432270  -0.035183   0.025131   0.003757  -0.007901
    13  C   -0.048240   0.448722  -0.077862   0.060948   0.029789
    14  H   -0.000000  -0.000000   0.000045   0.000001  -0.000333
    15  H    0.000000  -0.000000   0.000914   0.000009   0.001773
    16  H    0.000000  -0.000182  -0.002065   0.032475  -0.000583
    17  H   -0.000000   0.000000  -0.000495  -0.000105   0.000027
    18  H   -0.006424  -0.000200   0.000045   0.000001  -0.000332
    19  H    0.531356  -0.008364  -0.000495  -0.000105   0.000027
    20  H   -0.008364   0.532868  -0.002100   0.032458  -0.000582
    21  C   -0.000495  -0.002100   5.170541   0.923485  -0.151545
    22  O   -0.000105   0.032458   0.923485   7.913685  -0.001651
    23  S    0.000027  -0.000582  -0.151545  -0.001651  15.224944
 Mulliken charges:
               1
     1  C   -0.097864
     2  C   -0.109860
     3  C   -0.031228
     4  C    0.008235
     5  C   -0.121376
     6  C   -0.137652
     7  C    0.007971
     8  C   -0.031973
     9  C   -0.109680
    10  H    0.112148
    11  C   -0.097883
    12  C   -0.137560
    13  C   -0.121300
    14  H    0.136171
    15  H    0.112097
    16  H    0.122611
    17  H    0.129876
    18  H    0.136240
    19  H    0.129824
    20  H    0.122676
    21  C    0.145297
    22  O   -0.442927
    23  S    0.276156
 Sum of Mulliken charges =  -0.00000
 Mulliken charges with hydrogens summed into heavy atoms:
               1
     1  C    0.038306
     2  C    0.002237
     3  C   -0.031228
     4  C    0.008235
     5  C    0.001235
     6  C   -0.007776
     7  C    0.007971
     8  C   -0.031973
     9  C    0.002468
    11  C    0.038358
    12  C   -0.007736
    13  C    0.001376
    21  C    0.145297
    22  O   -0.442927
    23  S    0.276156
 Electronic spatial extent (au):  <R**2>=          16130.0890
 Charge=             -0.0000 electrons
 Dipole moment (field-independent basis, Debye):
    X=              2.9863    Y=             -5.0800    Z=              0.0370  Tot=              5.8928
 Quadrupole moment (field-independent basis, Debye-Ang):
   XX=           -109.1108   YY=           -102.1793   ZZ=            -95.5338
   XY=             45.9027   XZ=             -0.2185   YZ=              0.1580
 Traceless Quadrupole moment (field-independent basis, Debye-Ang):
   XX=             -6.8362   YY=              0.0953   ZZ=              6.7408
   XY=             45.9027   XZ=             -0.2185   YZ=              0.1580
 Octapole moment (field-independent basis, Debye-Ang**2):
  XXX=           1575.7861  YYY=           -355.1940  ZZZ=              3.4767  XYY=            623.9420
  XXY=           -451.4430  XXZ=              2.5166  XZZ=            539.1234  YZZ=           -106.0161
  YYZ=              1.6247  XYZ=             -1.1134
 Hexadecapole moment (field-independent basis, Debye-Ang**3):
 XXXX=         -19062.1847 YYYY=          -2340.9234 ZZZZ=           -106.3951 XXXY=           3864.8134
 XXXZ=            -30.1460 YYYX=           1792.2528 YYYZ=              5.9489 ZZZX=            -23.1799
 ZZZY=              4.2778 XXYY=          -4525.0510 XXZZ=          -3540.1928 YYZZ=           -422.1135
 XXYZ=              9.4741 YYXZ=            -11.1317 ZZXY=            424.6115
 N-N= 1.036051568721D+03 E-N=-4.357130125905D+03  KE= 9.708500088334D+02

 Atomic contributions to Alpha molecular orbitals:
 Alpha occ 36 OE=-0.483 is C1-p=0.1186 C11-p=0.1186
 Alpha occ 37 OE=-0.481 is S23-p=0.3081 C8-p=0.1738 C3-p=0.1737
 Alpha occ 38 OE=-0.479 is C12-p=0.0881
 Alpha occ 39 OE=-0.448 is C11-p=0.1075 C1-p=0.1075
 Alpha occ 40 OE=-0.443 is C5-p=0.1226 C2-p=0.1209 C13-p=0.1184 C9-p=0.1169
 Alpha occ 41 OE=-0.442 is C13-p=0.1209 C5-p=0.1167 C9-p=0.1134 C2-p=0.1094
 Alpha occ 42 OE=-0.416 is O22-p=0.4836 C21-p=0.1510
 Alpha occ 43 OE=-0.398 is C21-p=0.3117 O22-p=0.3019 S23-p=0.1325
 Alpha occ 44 OE=-0.396 is C8-p=0.1261 C3-p=0.1259
 Alpha occ 45 OE=-0.396 is C12-p=0.0922
 Alpha occ 46 OE=-0.379 is S23-p=0.1395
 Alpha occ 47 OE=-0.371 is C13-p=0.0772
 Alpha occ 48 OE=-0.364 is C6-p=0.0794
 Alpha occ 49 OE=-0.346 is C12-p=0.1466 C6-p=0.1466 C1-p=0.1398 C11-p=0.1398
 Alpha occ 50 OE=-0.312 is S23-p=0.4298
 Alpha occ 51 OE=-0.295 is C6-p=0.1573 C12-p=0.1573 C8-p=0.1427 C3-p=0.1426 C5-p=0.1010 C13-p=0.1010
 Alpha occ 52 OE=-0.275 is C1-p=0.1454 C11-p=0.1453 C7-p=0.1350 C4-p=0.1350
 Alpha occ 53 OE=-0.270 is O22-p=0.2195 C9-p=0.1083 C2-p=0.1082
 Alpha occ 54 OE=-0.247 is O22-p=0.7629
 Alpha occ 55 OE=-0.210 is S23-p=0.1783 O22-p=0.1536
 Alpha vir 56 OE=-0.074 is C13-p=0.1193 C5-p=0.1193 C21-p=0.1039
 Alpha vir 57 OE=-0.067 is C6-p=0.1345 C12-p=0.1344 C7-p=0.1245 C4-p=0.1244
 Alpha vir 58 OE=-0.024 is C9-p=0.1442 C2-p=0.1442 C13-p=0.1317 C5-p=0.1317 C1-p=0.1004 C11-p=0.1004
 Alpha vir 59 OE=0.002 is S23-p=0.2637 C3-p=0.1161 C8-p=0.1161
 Alpha vir 60 OE=0.044 is H14-s=0.2737 H18-s=0.2724 H15-s=0.2176 H10-s=0.2164 H17-s=0.1931 H19-s=0.1925 S23-s=-0.1830 C1-s=-0.1130 C11-s=-0.1127
 Alpha vir 61 OE=0.049 is H19-s=0.2533 H17-s=0.2518 H18-s=0.2401 H14-s=0.2391 H10-s=0.1748 H15-s=0.1744
 Alpha vir 62 OE=0.052 is C21-p=0.1453 C1-p=0.1339 C11-p=0.1339 C6-p=0.1147 C12-p=0.1147
 Alpha vir 63 OE=0.066 is S23-s=-0.4398 H16-s=0.3837 H20-s=0.3826 H15-s=0.2430 H10-s=0.2426 C3-p=0.2345 C8-p=0.2343 C2-p=-0.1885 C9-p=-0.1882 C5-p=-0.1795 C13-p=-0.1790 C21-s=-0.1439 H17-s=0.1432 H19-s
 =0.1427 C6-s=-0.1310 C12-s=-0.1306 S23-p=0.1077
 Alpha vir 64 OE=0.077 is H10-s=0.3446 H15-s=0.3441 H20-s=0.2863 H16-s=0.2859 H19-s=0.2038 H17-s=0.2037 C9-p=-0.1286 C2-p=-0.1282
 Alpha vir 65 OE=0.086 is S23-p=0.3971 H14-s=0.2774 H18-s=0.2769 H15-s=0.1861 H10-s=0.1859 C1-p=-0.1343 C11-p=-0.1342
 Alpha vir 66 OE=0.096 is H16-s=0.2997 H20-s=0.2990 H10-s=0.2596 H15-s=0.2588 C5-p=-0.1316 C13-p=-0.1311 H17-s=0.1073 H19-s=0.1069
 Alpha vir 67 OE=0.105 is S23-s=-0.5977 H18-s=0.4449 H14-s=0.4446 C11-p=-0.2964 C1-p=-0.2963 C8-p=0.2810 C3-p=0.2810 H17-s=0.2276 H19-s=0.2269 S23-p=0.1849 C6-p=-0.1516 C12-p=-0.1510 C21-p=0.1118 C2-p=
 0.1056 C9-p=0.1052
 Alpha vir 68 OE=0.111 is C12-p=0.1096 C6-p=0.1096 C5-p=0.1035 C13-p=0.1035
 Alpha vir 69 OE=0.116 is S23-d=0.2868 S23-s=-0.1676 H16-s=0.1330 H20-s=0.1323 C4-s=-0.1315 C7-s=-0.1312 C21-s=0.1293
 Alpha vir 70 OE=0.121 is H20-s=0.4614 H16-s=0.4592 H19-s=0.3688 H17-s=0.3672 C13-p=-0.2787 C5-p=-0.2775 C12-p=-0.2709 C6-p=-0.2695 C13-s=0.1044 H18-s=0.1043 H14-s=0.1038 C5-s=0.1037
 Alpha vir 71 OE=0.146 is S23-p=0.6041 H14-s=0.1741 H18-s=0.1736 H15-s=0.1471 H10-s=0.1469 C3-p=-0.1388 C8-p=-0.1384
 Alpha vir 72 OE=0.159 is S23-p=0.5400 C3-s=-0.2782 C8-s=-0.2780 C7-p=0.2031 C4-p=0.2031 C4-s=0.1670 C7-s=0.1669 C8-p=-0.1653 C3-p=-0.1648 C5-p=-0.1477 C13-p=-0.1476 C9-p=0.1273 C2-p=0.1270 S23-d=0.124
 4
 Alpha vir 73 OE=0.163 is S23-p=0.2756 C21-p=0.2112 C4-p=0.1326 C7-p=0.1326
 Alpha vir 74 OE=0.198 is C21-p=0.3629 C13-p=0.2624 C5-p=0.2622 O22-s=-0.2417 C21-s=-0.1614 S23-s=-0.1614 C13-s=0.1490 C5-s=0.1487 C7-s=-0.1149 C4-s=-0.1144
 Alpha vir 75 OE=0.206 is S23-s=-1.6740 C21-s=-0.7534 C3-p=0.6003 C8-p=0.6002 C21-p=0.5789 C7-p=0.4492 C4-p=0.4487 C9-s=0.2174 C2-s=0.2172 C3-s=0.1532 C8-s=0.1531
 
 No NMR shielding tensors so no spin-rotation constants.
 Leave Link  601 at Tue Jul  9 16:45:58 2024, MaxMem=  2684354560 cpu:               9.7 elap:               1.1
 (Enter /mnt/data/applications/G16/g16/l701.exe)
 ... and contract with generalized density number  0.
 Compute integral first derivatives.
 R6Disp: Adding Grimme-D3(BJ) dispersion energy 1st derivatives to the gradient.
   1 Symmetry operations used in ECPInt.
 ECPInt:  NShTT=   20100 NPrTT=   94680 LenC2=   18480 LenP2D=   57258.
 LDataN:  DoStor=T MaxTD1= 7 Len=  274
 D1PCM: PCM CHGder 1st derivatives, ID1Alg=3 FixD1E=F DoIter=F DoCFld=F I1PDM=0.
 GePol: Maximum number of non-zero 1st derivatives   =     226
 Leave Link  701 at Tue Jul  9 16:46:08 2024, MaxMem=  2684354560 cpu:             111.3 elap:               9.4
 (Enter /mnt/data/applications/G16/g16/l702.exe)
 L702 exits ... SP integral derivatives will be done elsewhere.
 Leave Link  702 at Tue Jul  9 16:46:08 2024, MaxMem=  2684354560 cpu:               0.3 elap:               0.1
 (Enter /mnt/data/applications/G16/g16/l703.exe)
 Integral derivatives from FoFJK, PRISM(SPDF).
 Compute integral first derivatives, UseDBF=F ICtDFT=           0.
 Calling FoFJK, ICntrl=      2127 FMM=F ISym2X=0 I1Cent= 0 IOpClX= 0 NMat=1 NMatS=1 NMatT=0.
 FoFJK:  IHMeth= 1 ICntrl=    2127 DoSepK=F KAlg= 0 I1Cent=           0 FoldK=F
 IRaf=         0 NMat=       1 IRICut=       1 DoRegI=T DoRafI=F ISym2E= 0 IDoP0=0 IntGTp=1.
 FoFCou: FMM=F IPFlag=           0 FMFlag=      100000 FMFlg1=         800
         NFxFlg=           0 DoJE=F BraDBF=F KetDBF=F FulRan=T
         wScrn=  0.000000 ICntrl=      2127 IOpCl=  0 I1Cent=           0 NGrid=           0
         NMat0=    1 NMatS0=      1 NMatT0=    0 NMatD0=    1 NMtDS0=    0 NMtDT0=    0
 Symmetry not used in FoFCou.
 Leave Link  703 at Tue Jul  9 16:50:35 2024, MaxMem=  2684354560 cpu:            3189.2 elap:             266.5
 (Enter /mnt/data/applications/G16/g16/l716.exe)
 Dipole        = 1.17490477D+00-1.99861105D+00 1.45506542D-02
 -------------------------------------------------------------------
 Center     Atomic                   Forces (Hartrees/Bohr)
 Number     Number              X              Y              Z
 -------------------------------------------------------------------
      1        6          -0.009154042    0.001025404   -0.000075159
      2        6           0.004313498   -0.013595684    0.000300730
      3        6          -0.367027376    0.025497527   -0.001534991
      4        6          -0.041302661   -0.043522477    0.000269305
      5        6           0.010559734    0.014657750   -0.000170985
      6        6          -0.010296228   -0.011408513   -0.000064625
      7        6           0.057996278    0.014935524    0.000318976
      8        6           0.156214262    0.333066665   -0.000085649
      9        6           0.009790236   -0.010404615    0.000249834
     10        1          -0.005816924    0.010494304   -0.000118985
     11        6           0.003589576    0.008510877   -0.000136228
     12        6           0.014877662    0.003484454    0.000190549
     13        6          -0.017905337   -0.002064716   -0.000134787
     14        1           0.008651704    0.009592985   -0.000062741
     15        1          -0.006331467    0.010174549   -0.000053955
     16        1           0.008054335   -0.011542053    0.000105886
     17        1           0.012433610    0.001701140    0.000061577
     18        1          -0.012596598   -0.002930865   -0.000049867
     19        1          -0.007511136   -0.010065853   -0.000062143
     20        1           0.006246227   -0.012624018    0.000106845
     21        6          -0.016543039    0.028147224   -0.000260892
     22        8          -0.022202071    0.037646344   -0.000214653
     23       16           0.223959755   -0.380775952    0.001421960
 -------------------------------------------------------------------
 Cartesian Forces:  Max     0.380775952 RMS     0.083322639
 Leave Link  716 at Tue Jul  9 16:50:35 2024, MaxMem=  2684354560 cpu:               0.3 elap:               0.1
 (Enter /mnt/data/applications/G16/g16/l103.exe)

 GradGradGradGradGradGradGradGradGradGradGradGradGradGradGradGradGradGrad
 Berny optimization.
 FormGI is forming the generalized inverse of G from B-inverse, IUseBI=4.
 Internal  Forces:  Max     0.357728547 RMS     0.048314088
 Search for a local minimum.
 Step number   1 out of a maximum of  138
 All quantities printed in internal units (Hartrees-Bohrs-Radians)
 RMS Force = .48314D-01 SwitMx=.10000D-02 MixMth= 1
 Mixed Optimization -- RFO/linear search
 Second derivative matrix not updated -- first step.
 ITU=  0
     Eigenvalues ---    0.01764   0.01786   0.01866   0.01910   0.01980
     Eigenvalues ---    0.01986   0.01986   0.02049   0.02100   0.02119
     Eigenvalues ---    0.02119   0.02155   0.02155   0.02220   0.02253
     Eigenvalues ---    0.02305   0.02324   0.02465   0.02659   0.04685
     Eigenvalues ---    0.16000   0.16000   0.16000   0.16000   0.16000
     Eigenvalues ---    0.16000   0.16000   0.16000   0.22000   0.22000
     Eigenvalues ---    0.22529   0.22572   0.24474   0.24507   0.25000
     Eigenvalues ---    0.25000   0.25000   0.25000   0.33629   0.33629
     Eigenvalues ---    0.33632   0.33632   0.33681   0.33681   0.33683
     Eigenvalues ---    0.33683   0.35891   0.38265   0.38577   0.38614
     Eigenvalues ---    0.40247   0.40749   0.41168   0.41414   0.43957
     Eigenvalues ---    0.45325   0.49845   0.49859   0.51299   0.51335
     Eigenvalues ---    0.92213   1.15264   1.19784
 RFO step:  Lambda=-2.24711227D-01 EMin= 1.76424776D-02
 Linear search not attempted -- first point.
 Maximum step size (   0.300) exceeded in Quadratic search.
    -- Step size scaled by   0.692
 Iteration  1 RMS(Cart)=  0.04753921 RMS(Int)=  0.00094401
 Iteration  2 RMS(Cart)=  0.00268607 RMS(Int)=  0.00030796
 Iteration  3 RMS(Cart)=  0.00000262 RMS(Int)=  0.00030796
 Iteration  4 RMS(Cart)=  0.00000000 RMS(Int)=  0.00030796
 ITry= 1 IFail=0 DXMaxC= 2.31D-01 DCOld= 1.00D+10 DXMaxT= 3.00D-01 DXLimC= 3.00D+00 Rises=F
 Variable       Old X    -DE/DX   Delta X   Delta X   Delta X     New X
                                 (Linear)    (Quad)   (Total)
    R1        2.57876  -0.00537   0.00000  -0.00362  -0.00356   2.57520
    R2        2.69438  -0.01078   0.00000  -0.01153  -0.01151   2.68287
    R3        2.07869  -0.01268   0.00000  -0.01563  -0.01563   2.06306
    R4        2.70768  -0.00013   0.00000   0.00140   0.00144   2.70912
    R5        2.07956  -0.01198   0.00000  -0.01478  -0.01478   2.06478
    R6        2.70000   0.01618   0.00000   0.01749   0.01745   2.71745
    R7        2.64391   0.35773   0.00000   0.17936   0.18000   2.82391
    R8        2.70768  -0.01494   0.00000  -0.01804  -0.01810   2.68958
    R9        2.64390   0.07023   0.00000   0.05224   0.05158   2.69548
   R10        2.57875   0.00239   0.00000   0.00095   0.00091   2.57966
   R11        2.07956  -0.01402   0.00000  -0.01729  -0.01729   2.06227
   R12        2.07869  -0.01248   0.00000  -0.01538  -0.01538   2.06330
   R13        2.69991   0.01625   0.00000   0.01756   0.01753   2.71744
   R14        2.70759  -0.01482   0.00000  -0.01790  -0.01796   2.68963
   R15        2.64399   0.07028   0.00000   0.05229   0.05163   2.69562
   R16        2.70761  -0.00016   0.00000   0.00136   0.00140   2.70901
   R17        2.64397   0.35764   0.00000   0.17935   0.17999   2.82396
   R18        2.07960  -0.01200   0.00000  -0.01480  -0.01480   2.06480
   R19        2.57881  -0.00543   0.00000  -0.00368  -0.00362   2.57519
   R20        2.69428  -0.01076   0.00000  -0.01152  -0.01150   2.68279
   R21        2.07872  -0.01269   0.00000  -0.01564  -0.01564   2.06308
   R22        2.57884   0.00239   0.00000   0.00094   0.00090   2.57974
   R23        2.07873  -0.01250   0.00000  -0.01540  -0.01540   2.06332
   R24        2.07961  -0.01404   0.00000  -0.01732  -0.01732   2.06229
   R25        2.31929   0.04371   0.00000   0.02638   0.02638   2.34567
    A1        2.10219   0.00052   0.00000   0.00244   0.00250   2.10469
    A2        2.11114  -0.00284   0.00000  -0.00586  -0.00589   2.10525
    A3        2.06985   0.00232   0.00000   0.00342   0.00339   2.07325
    A4        2.10772  -0.00057   0.00000   0.00274   0.00282   2.11054
    A5        2.11455   0.00013   0.00000  -0.00166  -0.00170   2.11285
    A6        2.06091   0.00045   0.00000  -0.00108  -0.00112   2.05979
    A7        2.07328   0.00158   0.00000  -0.00843  -0.00871   2.06457
    A8        2.12408  -0.00774   0.00000  -0.02365  -0.02392   2.10016
    A9        2.08583   0.00617   0.00000   0.03207   0.03262   2.11845
   A10        2.07322  -0.00950   0.00000  -0.00069  -0.00038   2.07284
   A11        2.08592   0.03693   0.00000   0.02265   0.02187   2.10779
   A12        2.12404  -0.02743   0.00000  -0.02195  -0.02148   2.10256
   A13        2.10775   0.00741   0.00000   0.00606   0.00594   2.11369
   A14        2.06081  -0.00503   0.00000  -0.00541  -0.00535   2.05547
   A15        2.11463  -0.00238   0.00000  -0.00065  -0.00059   2.11403
   A16        2.10221   0.00056   0.00000  -0.00212  -0.00216   2.10004
   A17        2.06931   0.00106   0.00000   0.00348   0.00350   2.07281
   A18        2.11167  -0.00163   0.00000  -0.00136  -0.00134   2.11033
   A19        2.07336  -0.00959   0.00000  -0.00082  -0.00051   2.07285
   A20        2.08584   0.03686   0.00000   0.02254   0.02176   2.10759
   A21        2.12399  -0.02726   0.00000  -0.02171  -0.02124   2.10274
   A22        2.07314   0.00165   0.00000  -0.00833  -0.00860   2.06454
   A23        2.08592   0.00621   0.00000   0.03214   0.03269   2.11861
[...]
 73843,-0.25767168,0.00024897,0.00299278,0.00520558,0.00000743,0.001325
 70,0.00147967,0.00002253,0.00074304,0.00011298,-0.00000030,0.00379192,
 -0.00356392,0.00004112,-0.01707816,-0.01788358,0.00001338,-0.00005892,
 -0.00007755,0.00000034,0.00012936,0.00008176,-0.00000040,-0.00002775,-
 0.00003298,-0.00000062,-0.00000259,0.00000522,-0.00000008,-0.00000305,
 0.00002892,0.00000010,0.00000018,-0.00003254,0.,-0.00004420,0.00002007
 ,-0.00000008,0.13624885,0.27108864,0.00006470,0.00025068,-0.04019631,-
 0.00006338,-0.00008325,0.00467292,-0.00004344,0.00002252,0.00790513,-0
 .00000172,-0.00000274,-0.00083367,-0.00003207,0.00004043,0.00669054,0.
 00007264,0.00010386,0.00449432,0.00000010,0.00000088,0.00013527,-0.000
 00115,0.00000119,-0.00023098,0.00000043,-0.00000168,-0.00021310,0.0000
 0013,-0.00000004,-0.00001732,-0.00000062,0.00000053,0.00005748,0.00000
 037,-0.00000002,-0.00003177,-0.00000020,-0.00000007,0.00005921,-0.0000
 3522,-0.00029979,0.02649712,-0.01025166,0.03001877,-0.00013171,-0.1163
 8995,0.11201251,-0.00057395,0.01082231,-0.01763106,0.00007686,-0.00189
 005,-0.00247833,-0.00001743,-0.00087175,-0.00069465,0.00000207,-0.0053
 3047,-0.00106414,-0.00003584,-0.00007848,0.00010480,-0.00000065,-0.000
 07945,-0.00020990,0.00000302,0.00006520,0.00012535,-0.00000034,-0.0000
 1695,-0.00001050,0.00000011,0.00002047,-0.00006626,-0.00000003,-0.0000
 4731,0.00003513,-0.00000025,0.00000223,0.00009995,-0.00000046,0.001370
 42,-0.00035628,0.00001888,0.12155740,-0.00125266,0.00291480,-0.0000004
 3,0.11207671,-0.27901555,0.00105168,0.01269148,-0.01929374,0.00010228,
 -0.00422381,-0.00250268,0.00001103,-0.00063278,0.00034872,-0.00000568,
 -0.00023174,0.00156635,0.00001687,-0.00008897,0.00005907,0.00000002,-0
 .00012707,-0.00016145,-0.00000416,0.00002446,0.00012084,0.00000018,0.0
 0000410,-0.00001329,-0.00000009,0.00001752,-0.00007963,0.00000055,-0.0
 0007585,0.00003127,-0.00000043,-0.00006421,0.00011544,-0.00000036,0.00
 024966,0.00074594,-0.00001524,-0.11961705,0.29586373,-0.00003829,0.000
 09483,0.00408444,-0.00057731,0.00105213,-0.03665508,-0.00001102,0.0000
 0902,0.00240994,-0.00001139,0.00001623,0.00602417,0.00000016,-0.000005
 60,-0.00094035,-0.00003809,0.00001578,0.00752940,-0.00000050,0.0000004
 8,0.00006173,0.00000237,-0.00000314,-0.00103199,0.00000008,0.00000014,
 0.00011018,0.00000012,-0.00000012,-0.00004651,-0.00000054,-0.00000011,
 0.00009174,-0.00000005,0.00000026,-0.00001322,0.00000006,0.00000023,0.
 00007036,0.00001748,-0.00001637,-0.00463222,0.00064797,-0.00115801,0.0
 2484813,-0.00153756,-0.00321834,-0.00002000,-0.00055255,-0.00047961,0.
 00000343,-0.00515549,-0.00086791,-0.00002929,-0.01088002,0.02851361,-0
 .00013090,-0.11311362,0.11227576,-0.00055049,0.01195049,-0.01741090,0.
 00007138,0.00078995,-0.00021106,0.00000412,0.00040976,0.00071146,0.000
 00055,-0.00008942,-0.00018937,0.00000016,0.00004836,-0.00000044,0.0000
 0015,0.00002137,0.00015891,-0.00000025,0.00017069,-0.00014419,0.000001
 11,-0.00002078,-0.00021628,0.00000030,0.00038426,-0.00085225,0.0000041
 8,0.00012585,0.00007191,0.00000279,0.11658319,-0.00350041,-0.00224305,
 0.00002157,-0.00069072,0.00030019,-0.00000641,-0.00032514,0.00086759,0
 .00001155,0.00283790,0.00278295,0.00001601,0.11331603,-0.28472781,0.00
 105852,0.01220248,-0.01714599,0.00010376,0.00042043,0.00011656,0.00000
 122,0.00012025,0.00002392,-0.00000009,0.00004980,-0.00002555,0.0000003
 7,0.00002700,0.00001422,0.00000007,0.00002706,0.00001144,0.00000009,0.
 00003285,-0.00000014,-0.00000016,0.00003132,-0.00011651,0.00000137,0.0
 0063343,-0.00073475,0.00000303,0.00009424,-0.00005708,-0.00000221,-0.1
 2130591,0.30325140,-0.00001969,0.00002135,0.00825306,0.00000475,-0.000
 00532,-0.00114314,-0.00003121,0.00001130,0.00525665,-0.00006430,0.0000
 8730,0.00509750,-0.00054728,0.00105944,-0.04084408,-0.00001614,0.00001
 219,0.00537089,-0.00000080,-0.00000094,-0.00000295,0.00000106,0.000000
 70,-0.00012058,-0.00000031,-0.00000025,0.00001154,-0.00000003,-0.00000
 002,0.00000309,-0.00000007,0.00000009,-0.00000798,0.00000013,-0.000000
 27,-0.00005588,-0.00000101,0.00000081,0.00023760,0.00000003,-0.0000012
 2,-0.00025234,0.00000277,-0.00000217,-0.00086864,0.00063130,-0.0011784
 8,0.02743600,-0.00960846,-0.00152401,-0.00003324,0.00080903,0.00257856
 ,-0.00002405,0.00072028,0.00000330,0.00000437,0.00045416,-0.00314481,-
 0.00001324,-0.01290234,0.00253988,-0.00005641,-0.33813806,0.01508051,-
 0.00094019,-0.00015438,-0.00037486,0.00000233,-0.00001108,0.00000131,0
 .00000082,-0.00000578,-0.00004805,-0.00000026,-0.00000627,0.00000706,-
 0.00000002,-0.00002233,-0.00002525,-0.00000016,-0.00006202,-0.00002838
 ,-0.00000031,-0.00007572,0.00010749,-0.00000111,0.00077081,0.00013362,
 0.00001274,-0.00054587,-0.00017384,-0.00000162,0.00095629,0.00001588,0
 .00001729,0.35821751,0.02956952,0.00264244,0.00008879,0.00195381,-0.00
 467334,0.00003793,-0.00015930,-0.00121796,0.00000074,-0.00234904,-0.00
 411170,0.00002980,-0.02851119,0.00509224,-0.00009030,0.01523078,-0.060
 09815,0.00011094,-0.00015347,-0.00043216,-0.00000101,0.00007137,-0.000
 13263,0.00000002,0.00000245,0.00005107,0.00000022,-0.00000795,0.000001
 70,-0.00000006,-0.00000156,-0.00002077,0.00000011,-0.00002964,-0.00002
 024,0.00000005,-0.00012375,0.00008857,-0.00000046,-0.00072519,0.001218
 48,-0.00001518,0.00139284,0.00000885,0.00000477,0.00072126,0.00120191,
 -0.00001550,-0.01583554,0.05946261,-0.00012442,-0.00000297,0.00301683,
 -0.00002312,0.00004000,0.00639494,0.00000410,0.00000136,-0.00079715,-0
 .00001624,0.00002543,0.00816583,0.00003351,0.00000278,0.00347954,-0.00
 093892,0.00011014,-0.03717727,0.00000231,-0.00000190,-0.00056016,0.000
 00016,-0.00000012,-0.00020243,-0.00000042,-0.00000010,0.00010638,0.000
 00004,-0.00000001,-0.00000634,-0.00000021,-0.00000002,0.00002899,-0.00
 000036,0.00000012,0.00004426,-0.00000046,0.00000060,0.00013867,0.00001
 491,-0.00001314,-0.00353593,-0.00000617,0.,0.00014971,0.00001518,-0.00
 001855,-0.00485994,0.00103555,-0.00014428,0.02585491,0.00004675,-0.000
 07454,0.00000017,-0.00020829,0.00002412,0.00000012,0.00022009,-0.00025
 752,0.00000216,-0.00003671,0.00002265,-0.00000062,-0.00002587,-0.00004
 392,-0.00000016,-0.00003046,0.00004568,-0.00000009,0.00043670,0.000040
 99,0.00000472,0.00100003,-0.00196463,-0.00002331,-0.00959047,0.0009976
 5,-0.00005979,0.00082420,-0.00007587,0.00002201,-0.33742857,-0.0172045
 0,-0.00115742,-0.01236089,-0.00348928,-0.00006043,0.00013771,0.0034015
 8,-0.00003421,-0.00001684,-0.00000563,-0.00000019,0.00000862,0.0000003
 4,0.00000009,0.00000020,0.00000763,-0.00000007,-0.00001128,-0.00000194
 ,0.00000002,0.35726269,0.00003579,-0.00010042,0.00000065,-0.00029183,0
 .00005943,-0.00000154,0.00012395,-0.00061414,0.00000087,0.00012820,0.0
 0006663,0.00000053,-0.00003814,0.00001951,-0.00000002,0.00000259,0.000
 04920,-0.00000021,-0.00018207,-0.00115073,0.00000038,-0.00217757,-0.00
 441926,0.00001962,-0.02963072,0.00158055,-0.00011263,0.00053088,0.0012
 6990,-0.00001163,-0.01658136,-0.06100483,-0.00001699,0.02704753,0.0065
 4442,0.00010506,0.00285559,-0.00426304,0.00003662,-0.00002396,-0.00000
 065,0.,0.00000820,0.00001058,-0.00000008,-0.00001087,0.00000086,-0.000
 00002,-0.00000504,0.00000387,-0.00000007,0.01860376,0.05985632,-0.0000
 0015,0.00000033,0.00005751,0.00000085,-0.00000066,-0.00021311,0.000001
 01,0.00000032,-0.00023110,-0.00000113,0.00000028,0.00013532,-0.0000001
 5,-0.00000005,0.00005930,-0.00000014,-0.00000007,-0.00003180,0.0000067
 9,0.00000014,-0.00083413,-0.00002271,0.00002199,0.00790616,0.00001116,
 0.00001225,0.00467858,0.00002081,-0.00001437,-0.00463614,-0.00115874,-
 0.00001909,-0.04021037,-0.00013027,-0.00001942,0.00450214,-0.00003447,
 0.00003885,0.00668929,-0.00000011,0.00000008,0.00003671,0.00000006,-0.
 00000008,-0.00001731,0.,0.00000007,0.00000857,0.00000002,-0.00000006,-
 0.00001330,0.00128997,-0.00000497,0.02650389,-0.00003246,0.00000372,-0
 .00000020,0.00001774,-0.00001057,-0.00000034,-0.00007266,0.00010481,0.
 00000034,-0.00059070,0.00009064,-0.00000007,0.00004303,-0.00019034,0.0
 0000033,-0.00005511,-0.00003344,-0.00000023,-0.00536452,0.00089065,-0.
 00005809,-0.00082470,0.00070179,-0.00000177,-0.00145240,0.00320849,-0.
 00003895,0.00039538,0.00086761,-0.00000115,0.01169100,0.01775779,-0.00
 000552,-0.11292393,-0.11005053,-0.00005096,-0.01017865,-0.03000772,0.0
 0001450,-0.00000264,-0.00000692,0.00000006,-0.00000020,-0.00001123,0.0
 0000006,0.00001446,0.00001978,0.,-0.00002022,-0.00001953,0.00000012,0.
 00086734,-0.00078288,0.00001934,0.11655121,-0.00001980,-0.00001053,0.0
 0000005,-0.00006057,0.00002762,0.,0.00003479,-0.00007117,-0.00000022,-
 0.00013092,0.00000524,-0.00000186,0.00004171,-0.00002988,0.00000057,-0
 .00003234,-0.00002750,0.00000009,0.00009736,0.00170846,0.00001520,0.00
 086155,0.00032878,0.00000087,0.00384000,-0.00241327,0.00003583,-0.0006
 9652,-0.00093005,-0.00000017,-0.01333692,-0.01860704,-0.00000422,-0.11
 020580,-0.28526617,0.00012801,0.00102143,0.00238328,0.00000631,-0.0000
 0970,-0.00000485,-0.00000006,0.00000434,-0.00000413,0.00000001,0.00000
 348,0.00000848,-0.00000006,-0.00000851,-0.00000449,-0.00000009,0.00008
 040,0.00111166,-0.00001033,0.11856448,0.30101598,-0.00000008,0.0000001
 0,0.00002900,-0.00000012,0.00000015,0.00010635,0.00000058,0.00000033,-
 0.00020251,0.00000032,-0.00000167,-0.00055978,-0.00000051,-0.00000014,
 0.00013881,-0.00000029,0.00000017,0.00004419,-0.00005380,0.00001809,0.
 00816277,-0.00000140,0.00000077,-0.00079642,-0.00004087,0.00003363,0.0
 0639527,0.00000256,0.00000612,0.00014996,0.00006537,0.00012272,0.00301
 237,-0.00004905,0.00012810,-0.03713851,-0.00005788,-0.00011899,0.00347
 928,0.00000006,-0.00000006,-0.00001328,0.00000001,-0.00000006,-0.00000
 634,0.00000008,0.,-0.00001406,0.00000005,-0.00000015,-0.00003423,0.000
 01752,-0.00001390,-0.00353602,0.00009164,-0.00015644,0.02582083,0.0000
 8992,-0.00001231,0.00000032,-0.00009979,0.00005601,-0.00000061,0.00045
 864,0.00009085,0.00000165,0.00035768,0.00063418,-0.00000131,-0.0001667
 4,0.00011453,-0.00000227,-0.00000728,0.00012665,-0.00000002,0.01287717
 ,-0.01040453,0.00005521,-0.00105934,-0.00259406,-0.00001898,-0.0004017
 3,-0.00078004,0.00000475,0.00005688,0.00013189,0.00000350,-0.00492937,
 -0.00160330,-0.00005045,-0.01247869,0.02577206,-0.00013280,-0.14827950
 ,0.13289210,-0.00073241,-0.00000115,0.00000785,-0.00000007,0.00003406,
 0.00003413,0.00000002,-0.00006973,-0.00003198,-0.00000005,0.00001902,0
 .00001645,0.00000008,-0.00056123,0.00115875,-0.00000365,0.00146106,-0.
 00026349,0.00002663,0.15583845,0.00011981,-0.00005975,0.00000053,-0.00
 018247,-0.00001430,-0.00000059,0.00068078,-0.00003639,0.00000190,0.000
 02840,0.00054868,-0.00000163,-0.00013372,0.00003690,-0.00000035,-0.000
 04506,0.00017854,-0.00000076,0.01527559,-0.02097913,0.00012134,-0.0031
 4732,-0.00322704,0.00000666,-0.00056422,0.00014766,-0.00000548,0.00010
 990,0.00001237,-0.00000166,-0.00133459,0.00114782,0.00001154,-0.003825
 51,0.00728415,-0.00001994,0.13186453,-0.24978890,0.00101214,-0.0000103
 0,0.00000181,0.,0.00000892,0.00002870,-0.00000003,-0.00007704,-0.00001
 103,-0.00000013,0.00000083,0.00000339,-0.00000004,-0.00032565,0.000213
 55,-0.00000238,0.00042546,0.00070847,-0.00001143,-0.14330281,0.2638014
 1,0.00000010,-0.00000004,-0.00000811,-0.00000035,0.00000029,0.00001210
 ,0.00000052,0.00000018,-0.00012105,0.00000144,0.00000023,-0.00001319,-
 0.00000088,0.00000095,0.00023811,0.00000018,-0.00000005,-0.00005612,0.
 00000608,0.00002332,0.00509107,-0.00001841,0.00001179,0.00525792,0.000
 00356,-0.00000709,-0.00114359,0.00000357,-0.00000169,-0.00086823,-0.00
 004941,0.00001121,0.00824806,-0.00006166,0.00009665,0.00537925,-0.0007
 4037,0.00101761,-0.04086032,-0.00000004,0.,0.00000861,0.00000014,0.000
 00004,0.00000332,0.,0.,0.00000930,0.00000004,0.,-0.00001394,-0.0000001
 8,0.00000334,-0.00025257,0.00002478,-0.00001383,-0.00485678,0.00083686
 ,-0.00111302,0.02719856,0.00004336,0.00221087,-0.00000550,-0.00168219,
 0.00629631,-0.00004547,0.02680705,0.00650588,0.00007706,-0.14749393,-0
 .05000461,-0.00007181,-0.02500674,-0.03611248,0.00000546,-0.00770264,0
 .00525920,-0.00005604,-0.17861061,-0.01956719,-0.00037420,-0.01169608,
 0.03281675,-0.00012805,-0.00008760,-0.00061217,-0.00002481,0.00105501,
 -0.00086362,0.00000456,0.00065680,0.00672374,-0.00000714,0.01293301,-0
 .00611430,0.00003889,-0.03774158,-0.02700532,-0.00009912,-0.00001651,0
 .00008472,0.00000331,0.00083424,0.00165278,-0.00000328,-0.00139277,-0.
 00036679,0.00000949,-0.00041529,-0.00117363,0.00000216,0.00022276,0.00
 022004,0.00000396,0.00060596,0.00056692,-0.00000112,-0.00082167,0.0032
 0149,-0.00000198,0.60477658,0.00708949,-0.00430620,0.00003026,0.000255
 44,-0.00327739,0.00002738,0.01143115,-0.03356909,0.00013471,-0.0367812
 8,-0.13984425,0.00008082,-0.03415991,-0.00263996,-0.00008912,0.0053733
 0,0.01342208,-0.00000488,-0.03285277,-0.10883386,-0.00005531,0.0279714
 2,0.00489176,0.00009916,0.00541039,-0.00485058,0.00004801,0.00153137,0
 .00038912,0.00000608,0.00185932,-0.00494034,0.00001732,-0.00624083,-0.
 00722166,0.00000459,-0.02899124,0.01017157,-0.00012351,0.00034600,0.00
 006647,-0.00000149,-0.00075109,0.00061754,-0.00000304,0.00351942,-0.00
 236963,0.00000947,0.00113829,0.00094003,0.00000263,-0.00005310,-0.0001
 8180,-0.00000209,-0.00174291,-0.00007969,-0.00000599,-0.00060849,-0.00
 298742,0.00000753,-0.13377362,0.75358718,-0.00001716,0.00001757,-0.000
 66097,-0.00002884,0.00004998,0.00712867,0.00005860,0.00011289,-0.00273
 210,-0.00012089,0.00002151,-0.07568995,0.00001541,-0.00008719,0.004945
 25,-0.00006264,-0.00000185,0.00643559,-0.00031667,-0.00000786,-0.07549
 358,-0.00010903,0.00011741,-0.00268789,-0.00004122,0.00002668,0.007129
 19,-0.00000078,-0.00000399,0.00039794,0.00000061,0.00003602,-0.0006625
 0,0.00004078,0.00001115,0.00644078,-0.00010674,-0.00012702,0.00494090,
 0.00000197,-0.00000309,-0.00111246,0.00000396,0.00000423,0.00039820,-0
 .00000676,-0.00000422,-0.00386336,-0.00000554,-0.00000634,0.00014515,0
 .00000566,-0.00000101,-0.00111321,0.00000658,0.00000316,0.00014499,0.0
 0001404,0.00001517,-0.00387640,0.00208047,-0.00244454,0.20261416,0.001
 40072,-0.00239494,0.00001116,-0.00015306,-0.00216010,0.00000995,-0.001
 18780,-0.00324755,-0.00000807,0.02518654,0.00404783,0.00000512,-0.0095
 3297,-0.00403396,-0.00000645,0.00365456,0.00174817,0.00000640,-0.05361
 596,0.05185129,-0.00047244,-0.00607097,-0.01456883,-0.00000848,-0.0012
 5395,0.00245338,-0.00000373,-0.00104534,0.00015361,-0.00000302,-0.0009
 0139,-0.00131246,0.00000043,-0.00273042,0.00323492,-0.00001311,0.00181
 169,0.00564302,-0.00001115,0.00022921,-0.00024449,0.00000124,-0.000172
 79,-0.00019731,0.00000060,0.00225292,-0.00326753,0.00001702,0.00004814
 ,0.00018864,-0.00000087,-0.00026987,0.00001233,-0.00000193,-0.00022546
 ,-0.00026811,-0.00000190,-0.00241986,0.00099290,-0.00000126,-0.2274878
 3,0.22026359,-0.00142736,0.27262072,-0.00259096,0.00115170,-0.00001181
 ,0.00184285,-0.00140579,0.00000448,-0.01728225,0.00382905,-0.00004940,
 0.00802854,-0.08469966,0.00039618,0.01195818,0.00090804,0.00003936,-0.
 00032434,-0.00548752,0.00001090,0.04786074,-0.00591383,0.00028855,-0.0
 0054203,0.00871428,-0.00001300,-0.00153838,-0.00031353,-0.00000879,0.0
 0028746,-0.00014177,0.00000068,-0.00111107,0.00346114,-0.00001209,0.00
 529946,0.00087379,0.00001766,-0.01034485,-0.01038740,-0.00002085,-0.00
 026094,-0.00014581,0.00000014,-0.00032382,-0.00102048,0.00000068,-0.00
 178953,-0.00130747,-0.00000209,-0.00041962,-0.00017769,0.00000028,0.00
 003371,0.00035712,-0.00000065,0.00034024,0.00009228,0.00000159,-0.0005
 2427,0.00382675,-0.00003571,0.22031962,-0.47261179,0.00233228,-0.26351
 792,0.56568465,0.00001421,-0.00001208,-0.00022788,-0.00000365,-0.00000
 570,-0.00149077,0.00004600,-0.00001187,0.00422983,-0.00000510,0.000383
 02,0.01865815,-0.00007463,-0.00001805,-0.00020122,0.00001446,0.0000227
 3,-0.00055693,-0.00046309,0.00030251,0.01863529,-0.00004427,-0.0000815
 2,0.00422971,0.00000502,0.00001055,-0.00148935,-0.00000497,0.00000078,
 -0.00021867,-0.00000067,-0.00001650,-0.00022423,-0.00002492,0.00001319
 ,-0.00055986,0.00004551,0.00005114,-0.00020344,0.00000129,0.00000040,0
 .00015439,0.00000129,0.00000271,-0.00021848,0.00001026,-0.00000807,-0.
 00023000,0.00000109,0.00000233,0.00028617,-0.00000235,-0.00000033,0.00
 015450,-0.00000349,-0.00000100,0.00028472,-0.00000054,-0.00001674,0.00
 004510,-0.00141240,0.00230843,-0.06918158,0.00191614,-0.00296170,0.028
 23895,0.01008462,-0.00458519,0.00002874,-0.03851273,-0.01210174,-0.000
 09746,-0.16134510,0.04952457,-0.00053357,-0.02387567,0.01616659,-0.000
 13020,-0.00100238,0.00065655,-0.00002062,-0.00352191,0.00652331,-0.000
 02706,0.00984493,0.00578231,0.00001438,-0.06446721,-0.04177916,-0.0000
 7896,-0.01745872,-0.03841179,0.00000997,-0.00021375,-0.00015563,0.0000
 0891,-0.00363688,0.00521021,-0.00003553,0.00171853,-0.00305400,0.00001
 756,-0.00323819,0.00105651,-0.00003150,0.00001517,-0.00003934,-0.00000
 072,0.00083413,-0.00012657,0.00001027,-0.00089586,-0.00034759,-0.00000
 287,-0.00001616,-0.00005542,0.00000304,-0.00048661,-0.00100318,-0.0000
 0051,0.00009648,-0.00008376,0.00000220,0.00010319,0.00024007,-0.000002
 70,-0.00777933,-0.01023394,0.00001555,-0.00013682,0.00459916,-0.000015
 18,0.30389026,-0.00245206,-0.00398249,0.00001278,-0.02666312,0.0107453
 6,-0.00010071,0.01205187,-0.06880014,0.00015724,0.02456025,-0.00236682
 ,0.00008927,-0.00016394,-0.00419068,0.00002306,-0.00013199,-0.00023380
 ,-0.00000191,-0.00257803,-0.03611684,0.00007936,-0.00435439,-0.1656483
 6,0.00029412,-0.02389814,-0.01026655,-0.00005839,0.00046446,0.00101364
 ,-0.00000376,0.00307256,0.00974624,0.00000224,0.00361692,-0.00546788,0
 .00002556,0.00189046,-0.00197573,0.00002324,-0.00127738,0.00009277,-0.
 00000369,-0.00070200,-0.00028380,-0.00000583,0.00079790,0.00015950,0.0
 0000380,-0.00001883,0.00017397,-0.00000207,0.00023806,0.00059128,-0.00
 000011,-0.00011940,0.00005855,-0.00000293,-0.00091016,-0.00083623,-0.0
 0000171,-0.01026457,0.00362793,-0.00006093,0.00462351,-0.00528606,0.00
 003578,0.02221803,0.27924615,0.00001841,0.00001005,0.00274917,-0.00004
 984,-0.00005203,0.00316693,-0.00046880,0.00027236,-0.02230364,-0.00016
 125,0.00006551,0.00447169,-0.00000899,0.00003197,0.00461940,-0.0000085
 4,0.00000870,-0.00083856,0.00003454,0.00012062,0.00447599,-0.00013653,
 0.00017187,-0.02219698,-0.00003265,-0.00012167,0.00321650,0.00000930,-
 0.00000180,-0.00139097,-0.00003135,0.00001684,0.00275170,0.00001047,-0
 .00000567,-0.00083937,-0.00004382,0.00001523,0.00461965,0.00000173,0.0
 0000080,0.00035768,0.00000968,-0.00000287,-0.00135118,-0.00000727,0.00
 000056,0.00057874,0.00000185,-0.00000235,-0.00061069,-0.00000363,-0.00
 000369,0.00035708,0.00000302,-0.00000186,-0.00061065,0.00000012,0.0000
 0490,0.00057891,0.00000556,-0.00004640,-0.00364680,-0.00000829,0.00002
 333,-0.00011441,0.00086625,-0.00050440,0.02195983\\-0.00014860,0.00008
 565,0.00000370,0.00019639,-0.00001872,-0.00000311,0.00004963,0.0000062
 9,0.00000344,0.00014254,-0.00012456,0.00000429,-0.00004462,0.00003496,
 0.00000185,0.00005851,-0.00011127,-0.00000102,0.00003941,-0.00019031,0
 .00000031,-0.00002682,-0.00003955,0.00000328,-0.00007863,-0.00017884,-
 0.00000184,0.00003072,0.00003900,-0.00000062,-0.00000402,0.00017561,0.
 00000277,0.00006850,-0.00010465,-0.00000118,-0.00000826,0.00006082,-0.
 00000015,0.00000083,-0.00001946,-0.00000063,-0.00004589,-0.00000787,0.
 00000041,-0.00000226,-0.00000612,0.00000111,-0.00001377,0.00001105,0.0
 0000045,0.00001590,-0.00000658,-0.00000032,-0.00000509,0.00001975,-0.0
 0000117,0.00000490,-0.00000281,0.00000158,-0.00023845,0.00040743,-0.00
 000781,0.00016024,-0.00028900,0.00000077,-0.00015113,0.00025919,-0.000
 00609\\\@


 THE WISE MAN HAS THE POWER TO REASON AWAY
 WHAT A FOOL BELIEVES.
                     - DOOBIE BROTHERS
 Job cpu time:       0 days 20 hours 18 minutes 48.9 seconds.
 Elapsed time:       0 days  1 hours 41 minutes 53.1 seconds.
 File lengths (MBytes):  RWF=    642 Int=      0 D2E=      0 Chk=     35 Scr=      1
 Normal termination of Gaussian 16 at Tue Jul  9 20:01:21 2024.
