 Entering Gaussian System, Link 0=g16
 Initial command:
 /mnt/data/applications/G16/g16/l1.exe "/scratch/Gau-16973.inp" -scrdir="/scratch/"
 Entering Link 1 = /mnt/data/applications/G16/g16/l1.exe PID=     16974.
  
 Copyright (c) 1988,1990,1992,1993,1995,1998,2003,2009,2016,
            Gaussian, Inc.  All Rights Reserved.
  
 This is part of the Gaussian(R) 16 program.  It is based on
 the Gaussian(R) 09 system (copyright 2009, Gaussian, Inc.),
 the Gaussian(R) 03 system (copyright 2003, Gaussian, Inc.),
 the Gaussian(R) 98 system (copyright 1998, Gaussian, Inc.),
 the Gaussian(R) 94 system (copyright 1995, Gaussian, Inc.),
 the Gaussian 92(TM) system (copyright 1992, Gaussian, Inc.),
 the Gaussian 90(TM) system (copyright 1990, Gaussian, Inc.),
 the Gaussian 88(TM) system (copyright 1988, Gaussian, Inc.),
 the Gaussian 86(TM) system (copyright 1986, Carnegie Mellon
 University), and the Gaussian 82(TM) system (copyright 1983,
 Carnegie Mellon University). Gaussian is a federally registered
 trademark of Gaussian, Inc.
  
 This software contains proprietary and confidential information,
 including trade secrets, belonging to Gaussian, Inc.
  
 This software is provided under written license and may be
 used, copied, transmitted, or stored only in accord with that
 written license.
  
 The following legend is applicable only to US Government
 contracts under FAR:
  
                    RESTRICTED RIGHTS LEGEND
  
 Use, reproduction and disclosure by the US Government is
 subject to restrictions as set forth in subparagraphs (a)
 and (c) of the Commercial Computer Software - Restricted
 Rights clause in FAR 52.227-19.
  
 Gaussian, Inc.
 340 Quinnipiac St., Bldg. 40, Wallingford CT 06492
  
  
 ---------------------------------------------------------------
 Warning -- This program may not be used in any manner that
 competes with the business of Gaussian, Inc. or will provide
 assistance to any competitor of Gaussian, Inc.  The licensee
 of this program is prohibited from giving any competitor of
 Gaussian, Inc. access to this program.  By using this program,
 the user acknowledges that Gaussian, Inc. is engaged in the
 business of creating and licensing software in the field of
 computational chemistry and represents and warrants to the
 licensee that it is not a competitor of Gaussian, Inc. and that
 it will not use this program in any manner prohibited above.
 ---------------------------------------------------------------
  

 Cite this work as:
 Gaussian 16, Revision A.03,
 M. J. Frisch, G. W. Trucks, H. B. Schlegel, G. E. Scuseria, 
 M. A. Robb, J. R. Cheeseman, G. Scalmani, V. Barone, 
 G. A. Petersson, H. Nakatsuji, X. Li, M. Caricato, A. V. Marenich, 
 J. Bloino, B. G. Janesko, R. Gomperts, B. Mennucci, H. P. Hratchian, 
 J. V. Ortiz, A. F. Izmaylov, J. L. Sonnenberg, D. Williams-Young, 
 F. Ding, F. Lipparini, F. Egidi, J. Goings, B. Peng, A. Petrone, 
 T. Henderson, D. Ranasinghe, V. G. Zakrzewski, J. Gao, N. Rega, 
 G. Zheng, W. Liang, M. Hada, M. Ehara, K. Toyota, R. Fukuda, 
 J. Hasegawa, M. Ishida, T. Nakajima, Y. Honda, O. Kitao, H. Nakai, 
 T. Vreven, K. Throssell, J. A. Montgomery, Jr., J. E. Peralta, 
 F. Ogliaro, M. J. Bearpark, J. J. Heyd, E. N. Brothers, K. N. Kudin, 
 V. N. Staroverov, T. A. Keith, R. Kobayashi, J. Normand, 
 K. Raghavachari, A. P. Rendell, J. C. Burant, S. S. Iyengar, 
 J. Tomasi, M. Cossi, J. M. Millam, M. Klene, C. Adamo, R. Cammi, 
 J. W. Ochterski, R. L. Martin, K. Morokuma, O. Farkas, 
 J. B. Foresman, and D. J. Fox, Gaussian, Inc., Wallingford CT, 2016.
 
 ******************************************
 Gaussian 16:  AM64L-G16RevA.03 25-Dec-2016
                11-Jul-2024 
 ******************************************
 %nprocshared=12
 Will use up to   12 processors via shared memory.
 %mem=20GB
 %chk=TX-d-a.chk
 ----------------------------------------------------------------------
 #p opt freq b3lyp/gen pseudo=read EmpiricalDispersion=GD3BJ pop=(orbit
 als=20) optcyc=300 nosymm scrf=(pcm,solvent=acetonitrile)
 ----------------------------------------------------------------------
 1/6=300,18=20,19=15,26=3,38=1/1,3;
 2/9=110,12=2,15=1,17=6,18=5,40=1/2;
 3/5=7,11=2,16=1,17=8,25=1,30=1,70=2201,71=1,72=2,74=-5,124=41/1,2,3;
 4//1;
 5/5=2,38=5,53=2/2;
 6/7=2,8=2,9=2,10=2,28=1,96=20/1;
 7/30=1/1,2,3,16;
 1/6=300,18=20,19=15,26=3/3(2);
 2/9=110,15=1/2;
 99//99;
 2/9=110,15=1/2;
 3/5=7,6=1,11=2,16=1,17=8,25=1,30=1,70=2205,71=1,72=2,74=-5,82=7,124=41/1,2,3;
 4/5=5,16=3,69=1/1;
 5/5=2,38=5,53=2/2;
 7/30=1/1,2,3,16;
 1/6=300,18=20,19=15,26=3/3(-5);
 2/9=110,15=1/2;
 6/7=2,8=2,9=2,10=2,19=2,28=1,96=20/1;
 99/9=1/99;
 Leave Link    1 at Thu Jul 11 13:41:21 2024, MaxMem=  2684354560 cpu:               1.1 elap:               0.1
 (Enter /mnt/data/applications/G16/g16/l101.exe)
 -------------------
 Title Card Required
 -------------------
 Symbolic Z-matrix:
 Charge =  0 Multiplicity = 1
 C                    -1.37384   1.41678   0.16871 
 C                    -1.28371   2.65526  -0.32581 
 C                    -0.00577   3.0864   -0.73539 
 C                     1.08575   2.1851   -0.64232 
 C                     0.87206   0.86399  -0.26549 
 C                    -0.31703   0.56644   0.22841 
 C                     2.72611   4.30469  -1.69941 
 C                     1.55224   5.07058  -1.73804 
 C                     1.62076   6.37708  -2.22749 
 H                     0.74147   6.9821   -2.2479 
 C                     2.79832   6.88228  -2.67213 
 C                     3.95207   6.08498  -2.69897 
 C                     3.91225   4.81234  -2.2413 
 H                    -2.14752   3.28342  -0.40919 
 H                     1.63535   0.11917  -0.34993 
 H                     2.84666   7.89605  -3.01046 
 H                     4.87001   6.4884   -3.07323 
 H                     4.78973   4.19828  -2.28511 
 C                     0.17987   4.52352  -1.26846 
 O                    -0.82426   5.27745  -1.33817 
 S                     2.74129   2.71022  -0.94946 
 O                    -0.65579  -0.62608   0.88888 
 C                    -2.93623  -1.58383   1.36375 
 C                    -2.10863  -2.56692   2.19504 
 C                    -4.10916  -1.07791   2.16065 
 H                    -1.25583  -2.88253   1.62529 
 H                    -4.63013  -0.33599   1.5926 
 C                    -1.65048  -1.9207    3.54792 
 C                    -3.70397  -0.49488   3.55668 
 C                    -2.92952  -1.54216   4.3141 
 H                    -3.52278  -2.41395   4.41481 
 H                    -2.67335  -1.1565    5.27911 
 H                    -2.72114  -3.40786   2.42723 
 H                    -4.75409  -1.9143    2.34733 
 C                    -3.48036  -2.3013    0.08367 
 H                    -4.05912  -1.61143  -0.49956 
 H                    -2.66685  -2.66751  -0.50425 
 H                    -4.10626  -3.12527   0.37631 
 C                    -0.94647  -2.98382   4.37078 
 H                    -0.69893  -2.58079   5.33198 
 H                    -1.61948  -3.80857   4.49036 
 H                    -0.05875  -3.31007   3.88276 
 C                    -5.09068  -0.21037   4.18684 
 H                    -5.6668   -1.11997   4.16663 
 H                    -4.97659   0.11332   5.19729 
 H                    -5.59967   0.54386   3.6245 
 C                    -0.70343  -0.62598   3.35266 
 O                     0.63281  -0.61668   3.18118 
 N                    -1.31458   0.58588   3.37246 
 H                    -0.73139   1.4273    3.22248 
 C                    -2.76813   0.79869   3.67753 
 H                    -3.16155   1.60613   3.05883 
 H                    -2.78673   1.08999   4.69876 
 N                    -2.52267   0.73967   0.70676 
 C                    -2.07212  -0.44635   0.98501 
 C                     3.5581    1.73867   2.62699 
 H                     3.69867   1.71988   1.58536 
 H                     4.08358   0.91906   3.09569 
 C                     4.18677   3.07896   3.19616 
 H                     5.2242    3.15251   2.90439 
 H                     4.11919   3.09235   4.25801 
 C                     3.43848   4.28037   2.64655 
 H                     3.80356   5.18187   3.11049 
 H                     3.57356   4.36669   1.58163 
 C                     1.29924   2.72004   2.94845 
 N                     2.03837   1.6056    2.87658 
 H                     1.49229   0.66611   2.99946 
 O                     0.04129   2.67065   3.01816 
 C                     1.96464   4.0986    2.95072 
 C                     1.27232   5.18395   3.20355 
 C                     0.68846   6.32268   3.51949 
 H                     0.95957   6.83933   4.40395 
 C                    -0.3636    6.91594   2.58638 
 C                    -1.81321   6.50186   2.92789 
 H                    -1.91444   5.44632   2.82843 
 H                    -2.04636   6.79838   3.92685 
 H                    -2.48085   6.99609   2.24487 
 C                    -0.1931    8.41971   2.72891 
 H                     0.8266    8.67841   2.48985 
 H                    -0.84767   8.92561   2.06499 
 H                    -0.39734   8.70444   3.73721 
 C                    -0.0704    6.45604   1.14634 
 H                     0.94658   6.70768   0.88978 
 H                    -0.19814   5.40132   1.07538 
 H                    -0.7307    6.95256   0.47097 
 
 Add virtual bond connecting atoms H67        and O48        Dist= 2.94D+00.
 Add virtual bond connecting atoms O68        and H50        Dist= 2.79D+00.
 ITRead=  0  0  0  0  0  0  0  0  0  0  0  0  0  0  0  0  0  0  0  0
 ITRead=  0  0  0  0  0  0  0  0  0  0  0  0  0  0  0  0  0  0  0  0
 ITRead=  0  0  0  0  0  0  0  0  0  0  0  0  0  0  0  0  0  0  0  0
 ITRead=  0  0  0  0  0  0  0  0  0  0  0  0  0  0  0  0  0  0  0  0
 ITRead=  0  0  0  0  0
 MicOpt= -1 -1 -1 -1 -1 -1 -1 -1 -1 -1 -1 -1 -1 -1 -1 -1 -1 -1 -1 -1
 MicOpt= -1 -1 -1 -1 -1 -1 -1 -1 -1 -1 -1 -1 -1 -1 -1 -1 -1 -1 -1 -1
 MicOpt= -1 -1 -1 -1 -1 -1 -1 -1 -1 -1 -1 -1 -1 -1 -1 -1 -1 -1 -1 -1
 MicOpt= -1 -1 -1 -1 -1 -1 -1 -1 -1 -1 -1 -1 -1 -1 -1 -1 -1 -1 -1 -1
 MicOpt= -1 -1 -1 -1 -1
 NAtoms=     85 NQM=       85 NQMF=       0 NMMI=      0 NMMIF=      0
                NMic=       0 NMicF=      0.
                    Isotopes and Nuclear Properties:
 (Nuclear quadrupole moments (NQMom) in fm**2, nuclear magnetic moments (NMagM)
  in nuclear magnetons)

  Atom         1           2           3           4           5           6           7           8           9          10
 IAtWgt=          12          12          12          12          12          12          12          12          12           1
 AtmWgt=  12.0000000  12.0000000  12.0000000  12.0000000  12.0000000  12.0000000  12.0000000  12.0000000  12.0000000   1.0078250
 NucSpn=           0           0           0           0           0           0           0           0           0           1
 AtZEff=  -0.0000000  -0.0000000  -0.0000000  -0.0000000  -0.0000000  -0.0000000  -0.0000000  -0.0000000  -0.0000000  -0.0000000
 NQMom=    0.0000000   0.0000000   0.0000000   0.0000000   0.0000000   0.0000000   0.0000000   0.0000000   0.0000000   0.0000000
 NMagM=    0.0000000   0.0000000   0.0000000   0.0000000   0.0000000   0.0000000   0.0000000   0.0000000   0.0000000   2.7928460
 AtZNuc=   6.0000000   6.0000000   6.0000000   6.0000000   6.0000000   6.0000000   6.0000000   6.0000000   6.0000000   1.0000000

  Atom        11          12          13          14          15          16          17          18          19          20
 IAtWgt=          12          12          12           1           1           1           1           1          12          16
 AtmWgt=  12.0000000  12.0000000  12.0000000   1.0078250   1.0078250   1.0078250   1.0078250   1.0078250  12.0000000  15.9949146
 NucSpn=           0           0           0           1           1           1           1           1           0           0
 AtZEff=  -0.0000000  -0.0000000  -0.0000000  -0.0000000  -0.0000000  -0.0000000  -0.0000000  -0.0000000  -0.0000000  -0.0000000
 NQMom=    0.0000000   0.0000000   0.0000000   0.0000000   0.0000000   0.0000000   0.0000000   0.0000000   0.0000000   0.0000000
 NMagM=    0.0000000   0.0000000   0.0000000   2.7928460   2.7928460   2.7928460   2.7928460   2.7928460   0.0000000   0.0000000
 AtZNuc=   6.0000000   6.0000000   6.0000000   1.0000000   1.0000000   1.0000000   1.0000000   1.0000000   6.0000000   8.0000000

  Atom        21          22          23          24          25          26          27          28          29          30
 IAtWgt=          32          16          12          12          12           1           1          12          12          12
 AtmWgt=  31.9720718  15.9949146  12.0000000  12.0000000  12.0000000   1.0078250   1.0078250  12.0000000  12.0000000  12.0000000
 NucSpn=           0           0           0           0           0           1           1           0           0           0
 AtZEff=  -0.0000000  -0.0000000  -0.0000000  -0.0000000  -0.0000000  -0.0000000  -0.0000000  -0.0000000  -0.0000000  -0.0000000
 NQMom=    0.0000000   0.0000000   0.0000000   0.0000000   0.0000000   0.0000000   0.0000000   0.0000000   0.0000000   0.0000000
 NMagM=    0.0000000   0.0000000   0.0000000   0.0000000   0.0000000   2.7928460   2.7928460   0.0000000   0.0000000   0.0000000
 AtZNuc=  16.0000000   8.0000000   6.0000000   6.0000000   6.0000000   1.0000000   1.0000000   6.0000000   6.0000000   6.0000000

  Atom        31          32          33          34          35          36          37          38          39          40
 IAtWgt=           1           1           1           1          12           1           1           1          12           1
 AtmWgt=   1.0078250   1.0078250   1.0078250   1.0078250  12.0000000   1.0078250   1.0078250   1.0078250  12.0000000   1.0078250
 NucSpn=           1           1           1           1           0           1           1           1           0           1
 AtZEff=  -0.0000000  -0.0000000  -0.0000000  -0.0000000  -0.0000000  -0.0000000  -0.0000000  -0.0000000  -0.0000000  -0.0000000
 NQMom=    0.0000000   0.0000000   0.0000000   0.0000000   0.0000000   0.0000000   0.0000000   0.0000000   0.0000000   0.0000000
 NMagM=    2.7928460   2.7928460   2.7928460   2.7928460   0.0000000   2.7928460   2.7928460   2.7928460   0.0000000   2.7928460
 AtZNuc=   1.0000000   1.0000000   1.0000000   1.0000000   6.0000000   1.0000000   1.0000000   1.0000000   6.0000000   1.0000000

  Atom        41          42          43          44          45          46          47          48          49          50
 IAtWgt=           1           1          12           1           1           1          12          16          14           1
 AtmWgt=   1.0078250   1.0078250  12.0000000   1.0078250   1.0078250   1.0078250  12.0000000  15.9949146  14.0030740   1.0078250
 NucSpn=           1           1           0           1           1           1           0           0           2           1
 AtZEff=  -0.0000000  -0.0000000  -0.0000000  -0.0000000  -0.0000000  -0.0000000  -0.0000000  -0.0000000  -0.0000000  -0.0000000
 NQMom=    0.0000000   0.0000000   0.0000000   0.0000000   0.0000000   0.0000000   0.0000000   0.0000000   2.0440000   0.0000000
 NMagM=    2.7928460   2.7928460   0.0000000   2.7928460   2.7928460   2.7928460   0.0000000   0.0000000   0.4037610   2.7928460
 AtZNuc=   1.0000000   1.0000000   6.0000000   1.0000000   1.0000000   1.0000000   6.0000000   8.0000000   7.0000000   1.0000000

  Atom        51          52          53          54          55          56          57          58          59          60
 IAtWgt=          12           1           1          14          12          12           1           1          12           1
 AtmWgt=  12.0000000   1.0078250   1.0078250  14.0030740  12.0000000  12.0000000   1.0078250   1.0078250  12.0000000   1.0078250
 NucSpn=           0           1           1           2           0           0           1           1           0           1
 AtZEff=  -0.0000000  -0.0000000  -0.0000000  -0.0000000  -0.0000000  -0.0000000  -0.0000000  -0.0000000  -0.0000000  -0.0000000
 NQMom=    0.0000000   0.0000000   0.0000000   2.0440000   0.0000000   0.0000000   0.0000000   0.0000000   0.0000000   0.0000000
 NMagM=    0.0000000   2.7928460   2.7928460   0.4037610   0.0000000   0.0000000   2.7928460   2.7928460   0.0000000   2.7928460
 AtZNuc=   6.0000000   1.0000000   1.0000000   7.0000000   6.0000000   6.0000000   1.0000000   1.0000000   6.0000000   1.0000000

  Atom        61          62          63          64          65          66          67          68          69          70
 IAtWgt=           1          12           1           1          12          14           1          16          12          12
 AtmWgt=   1.0078250  12.0000000   1.0078250   1.0078250  12.0000000  14.0030740   1.0078250  15.9949146  12.0000000  12.0000000
 NucSpn=           1           0           1           1           0           2           1           0           0           0
 AtZEff=  -0.0000000  -0.0000000  -0.0000000  -0.0000000  -0.0000000  -0.0000000  -0.0000000  -0.0000000  -0.0000000  -0.0000000
 NQMom=    0.0000000   0.0000000   0.0000000   0.0000000   0.0000000   2.0440000   0.0000000   0.0000000   0.0000000   0.0000000
 NMagM=    2.7928460   0.0000000   2.7928460   2.7928460   0.0000000   0.4037610   2.7928460   0.0000000   0.0000000   0.0000000
 AtZNuc=   1.0000000   6.0000000   1.0000000   1.0000000   6.0000000   7.0000000   1.0000000   8.0000000   6.0000000   6.0000000

  Atom        71          72          73          74          75          76          77          78          79          80
 IAtWgt=          12           1          12          12           1           1           1          12           1           1
 AtmWgt=  12.0000000   1.0078250  12.0000000  12.0000000   1.0078250   1.0078250   1.0078250  12.0000000   1.0078250   1.0078250
 NucSpn=           0           1           0           0           1           1           1           0           1           1
 AtZEff=  -0.0000000  -0.0000000  -0.0000000  -0.0000000  -0.0000000  -0.0000000  -0.0000000  -0.0000000  -0.0000000  -0.0000000
 NQMom=    0.0000000   0.0000000   0.0000000   0.0000000   0.0000000   0.0000000   0.0000000   0.0000000   0.0000000   0.0000000
 NMagM=    0.0000000   2.7928460   0.0000000   0.0000000   2.7928460   2.7928460   2.7928460   0.0000000   2.7928460   2.7928460
 AtZNuc=   6.0000000   1.0000000   6.0000000   6.0000000   1.0000000   1.0000000   1.0000000   6.0000000   1.0000000   1.0000000

  Atom        81          82          83          84          85
 IAtWgt=           1          12           1           1           1
 AtmWgt=   1.0078250  12.0000000   1.0078250   1.0078250   1.0078250
 NucSpn=           1           0           1           1           1
 AtZEff=  -0.0000000  -0.0000000  -0.0000000  -0.0000000  -0.0000000
 NQMom=    0.0000000   0.0000000   0.0000000   0.0000000   0.0000000
 NMagM=    2.7928460   0.0000000   2.7928460   2.7928460   2.7928460
 AtZNuc=   1.0000000   6.0000000   1.0000000   1.0000000   1.0000000
 Leave Link  101 at Thu Jul 11 13:41:21 2024, MaxMem=  2684354560 cpu:               5.9 elap:               0.5
 (Enter /mnt/data/applications/G16/g16/l103.exe)

 GradGradGradGradGradGradGradGradGradGradGradGradGradGradGradGradGradGrad
 Berny optimization.
 Initialization pass.
                           ----------------------------
                           !    Initial Parameters    !
                           ! (Angstroms and Degrees)  !
 --------------------------                            --------------------------
 ! Name  Definition              Value          Derivative Info.                !
 --------------------------------------------------------------------------------
 ! R1    R(1,2)                  1.3366         estimate D2E/DX2                !
 ! R2    R(1,6)                  1.3578         estimate D2E/DX2                !
 ! R3    R(1,54)                 1.438          estimate D2E/DX2                !
 ! R4    R(2,3)                  1.4095         estimate D2E/DX2                !
 ! R5    R(2,14)                 1.0713         estimate D2E/DX2                !
 ! R6    R(3,4)                  1.4186         estimate D2E/DX2                !
 ! R7    R(3,19)                 1.544          estimate D2E/DX2                !
 ! R8    R(4,5)                  1.3903         estimate D2E/DX2                !
 ! R9    R(4,21)                 1.7638         estimate D2E/DX2                !
 ! R10   R(5,6)                  1.3215         estimate D2E/DX2                !
 ! R11   R(5,15)                 1.0698         estimate D2E/DX2                !
 ! R12   R(6,22)                 1.4047         estimate D2E/DX2                !
 ! R13   R(7,8)                  1.4022         estimate D2E/DX2                !
 ! R14   R(7,13)                 1.3994         estimate D2E/DX2                !
 ! R15   R(7,21)                 1.7621         estimate D2E/DX2                !
 ! R16   R(8,9)                  1.3969         estimate D2E/DX2                !
 ! R17   R(8,19)                 1.5502         estimate D2E/DX2                !
 ! R18   R(9,10)                 1.0675         estimate D2E/DX2                !
 ! R19   R(9,11)                 1.3563         estimate D2E/DX2                !
 ! R20   R(11,12)                1.4027         estimate D2E/DX2                !
 ! R21   R(11,16)                1.0698         estimate D2E/DX2                !
 ! R22   R(12,13)                1.353          estimate D2E/DX2                !
 ! R23   R(12,17)                1.0702         estimate D2E/DX2                !
 ! R24   R(13,18)                1.0719         estimate D2E/DX2                !
 ! R25   R(19,20)                1.2576         estimate D2E/DX2                !
 ! R26   R(22,55)                1.4309         estimate D2E/DX2                !
 ! R27   R(23,24)                1.5305         estimate D2E/DX2                !
 ! R28   R(23,25)                1.5056         estimate D2E/DX2                !
 ! R29   R(23,35)                1.5651         estimate D2E/DX2                !
 ! R30   R(23,55)                1.4778         estimate D2E/DX2                !
 ! R31   R(24,26)                1.0731         estimate D2E/DX2                !
 ! R32   R(24,28)                1.5677         estimate D2E/DX2                !
 ! R33   R(24,33)                1.066          estimate D2E/DX2                !
 ! R34   R(25,27)                1.0698         estimate D2E/DX2                !
 ! R35   R(25,29)                1.5662         estimate D2E/DX2                !
 ! R36   R(25,34)                1.0725         estimate D2E/DX2                !
 ! R37   R(28,30)                1.5383         estimate D2E/DX2                !
 ! R38   R(28,39)                1.5175         estimate D2E/DX2                !
 ! R39   R(28,47)                1.616          estimate D2E/DX2                !
 ! R40   R(29,30)                1.5067         estimate D2E/DX2                !
 ! R41   R(29,43)                1.5495         estimate D2E/DX2                !
 ! R42   R(29,51)                1.6012         estimate D2E/DX2                !
 ! R43   R(30,31)                1.0593         estimate D2E/DX2                !
 ! R44   R(30,32)                1.0703         estimate D2E/DX2                !
 ! R45   R(35,36)                1.0729         estimate D2E/DX2                !
 ! R46   R(35,37)                1.0684         estimate D2E/DX2                !
 ! R47   R(35,38)                1.0753         estimate D2E/DX2                !
 ! R48   R(39,40)                1.0713         estimate D2E/DX2                !
 ! R49   R(39,41)                1.0712         estimate D2E/DX2                !
 ! R50   R(39,42)                1.0643         estimate D2E/DX2                !
 ! R51   R(43,44)                1.0769         estimate D2E/DX2                !
 ! R52   R(43,45)                1.0671         estimate D2E/DX2                !
 ! R53   R(43,46)                1.0697         estimate D2E/DX2                !
 ! R54   R(47,48)                1.3472         estimate D2E/DX2                !
 ! R55   R(47,49)                1.3574         estimate D2E/DX2                !
 ! R56   R(48,67)                1.5548         estimate D2E/DX2                !
 ! R57   R(49,50)                1.0347         estimate D2E/DX2                !
 ! R58   R(49,51)                1.5004         estimate D2E/DX2                !
 ! R59   R(50,68)                1.4781         estimate D2E/DX2                !
 ! R60   R(51,52)                1.0907         estimate D2E/DX2                !
 ! R61   R(51,53)                1.0621         estimate D2E/DX2                !
 ! R62   R(54,55)                1.2989         estimate D2E/DX2                !
 ! R63   R(56,57)                1.0512         estimate D2E/DX2                !
 ! R64   R(56,58)                1.0805         estimate D2E/DX2                !
 ! R65   R(56,59)                1.5861         estimate D2E/DX2                !
 ! R66   R(56,66)                1.5458         estimate D2E/DX2                !
 ! R67   R(59,60)                1.0802         estimate D2E/DX2                !
 ! R68   R(59,61)                1.0641         estimate D2E/DX2                !
 ! R69   R(59,62)                1.5183         estimate D2E/DX2                !
 ! R70   R(62,63)                1.0776         estimate D2E/DX2                !
 ! R71   R(62,64)                1.0769         estimate D2E/DX2                !
 ! R72   R(62,69)                1.5158         estimate D2E/DX2                !
 ! R73   R(65,66)                1.3392         estimate D2E/DX2                !
 ! R74   R(65,68)                1.2608         estimate D2E/DX2                !
 ! R75   R(65,69)                1.5307         estimate D2E/DX2                !
 ! R76   R(66,67)                1.0936         estimate D2E/DX2                !
 ! R77   R(69,70)                1.312          estimate D2E/DX2                !
 ! R78   R(70,71)                1.3181         estimate D2E/DX2                !
 ! R79   R(71,72)                1.0596         estimate D2E/DX2                !
 ! R80   R(71,73)                1.5263         estimate D2E/DX2                !
 ! R81   R(73,74)                1.5458         estimate D2E/DX2                !
 ! R82   R(73,78)                1.5201         estimate D2E/DX2                !
 ! R83   R(73,82)                1.5399         estimate D2E/DX2                !
 ! R84   R(74,75)                1.065          estimate D2E/DX2                !
 ! R85   R(74,76)                1.0678         estimate D2E/DX2                !
 ! R86   R(74,77)                1.0754         estimate D2E/DX2                !
 ! R87   R(78,79)                1.0788         estimate D2E/DX2                !
 ! R88   R(78,80)                1.0608         estimate D2E/DX2                !
 ! R89   R(78,81)                1.0674         estimate D2E/DX2                !
 ! R90   R(82,83)                1.0786         estimate D2E/DX2                !
 ! R91   R(82,84)                1.0648         estimate D2E/DX2                !
 ! R92   R(82,85)                1.0671         estimate D2E/DX2                !
 ! A1    A(2,1,6)              122.9629         estimate D2E/DX2                !
 ! A2    A(2,1,54)             128.9483         estimate D2E/DX2                !
 ! A3    A(6,1,54)             108.0881         estimate D2E/DX2                !
 ! A4    A(1,2,3)              116.8764         estimate D2E/DX2                !
 ! A5    A(1,2,14)             121.18           estimate D2E/DX2                !
 ! A6    A(3,2,14)             121.9427         estimate D2E/DX2                !
 ! A7    A(2,3,4)              118.9606         estimate D2E/DX2                !
 ! A8    A(2,3,19)             119.6061         estimate D2E/DX2                !
 ! A9    A(4,3,19)             121.4328         estimate D2E/DX2                !
 ! A10   A(3,4,5)              120.2145         estimate D2E/DX2                !
 ! A11   A(3,4,21)             121.4427         estimate D2E/DX2                !
 ! A12   A(5,4,21)             118.3176         estimate D2E/DX2                !
 ! A13   A(4,5,6)              116.9711         estimate D2E/DX2                !
 ! A14   A(4,5,15)             122.0398         estimate D2E/DX2                !
 ! A15   A(6,5,15)             120.9788         estimate D2E/DX2                !
 ! A16   A(1,6,5)              122.8813         estimate D2E/DX2                !
 ! A17   A(1,6,22)             111.3872         estimate D2E/DX2                !
 ! A18   A(5,6,22)             125.7241         estimate D2E/DX2                !
 ! A19   A(8,7,13)             120.0522         estimate D2E/DX2                !
 ! A20   A(8,7,21)             120.8773         estimate D2E/DX2                !
 ! A21   A(13,7,21)            119.0623         estimate D2E/DX2                !
 ! A22   A(7,8,9)              118.6515         estimate D2E/DX2                !
 ! A23   A(7,8,19)             122.686          estimate D2E/DX2                !
 ! A24   A(9,8,19)             118.6613         estimate D2E/DX2                !
 ! A25   A(8,9,10)             119.761          estimate D2E/DX2                !
 ! A26   A(8,9,11)             120.3874         estimate D2E/DX2                !
 ! A27   A(10,9,11)            119.8512         estimate D2E/DX2                !
 ! A28   A(9,11,12)            120.576          estimate D2E/DX2                !
 ! A29   A(9,11,16)            119.7271         estimate D2E/DX2                !
 ! A30   A(12,11,16)           119.6961         estimate D2E/DX2                !
 ! A31   A(11,12,13)           120.2621         estimate D2E/DX2                !
 ! A32   A(11,12,17)           119.8619         estimate D2E/DX2                !
 ! A33   A(13,12,17)           119.8728         estimate D2E/DX2                !
 ! A34   A(7,13,12)            119.8114         estimate D2E/DX2                !
 ! A35   A(7,13,18)            120.1252         estimate D2E/DX2                !
 ! A36   A(12,13,18)           120.0606         estimate D2E/DX2                !
 ! A37   A(3,19,8)             122.6486         estimate D2E/DX2                !
 ! A38   A(3,19,20)            118.7598         estimate D2E/DX2                !
 ! A39   A(8,19,20)            118.5874         estimate D2E/DX2                !
 ! A40   A(4,21,7)             109.5983         estimate D2E/DX2                !
 ! A41   A(6,22,55)             99.4192         estimate D2E/DX2                !
 ! A42   A(24,23,25)           110.4637         estimate D2E/DX2                !
 ! A43   A(24,23,35)           109.7416         estimate D2E/DX2                !
 ! A44   A(24,23,55)           108.507          estimate D2E/DX2                !
 ! A45   A(25,23,35)           108.428          estimate D2E/DX2                !
 ! A46   A(25,23,55)           109.4228         estimate D2E/DX2                !
 ! A47   A(35,23,55)           110.2748         estimate D2E/DX2                !
 ! A48   A(23,24,26)           109.2851         estimate D2E/DX2                !
 ! A49   A(23,24,28)           111.2213         estimate D2E/DX2                !
 ! A50   A(23,24,33)           108.3209         estimate D2E/DX2                !
 ! A51   A(26,24,28)           110.3149         estimate D2E/DX2                !
 ! A52   A(26,24,33)           109.8932         estimate D2E/DX2                !
 ! A53   A(28,24,33)           107.7666         estimate D2E/DX2                !
 ! A54   A(23,25,27)           109.3518         estimate D2E/DX2                !
 ! A55   A(23,25,29)           113.2866         estimate D2E/DX2                !
 ! A56   A(23,25,34)           107.3702         estimate D2E/DX2                !
 ! A57   A(27,25,29)           109.9439         estimate D2E/DX2                !
 ! A58   A(27,25,34)           109.901          estimate D2E/DX2                !
 ! A59   A(29,25,34)           106.9009         estimate D2E/DX2                !
 ! A60   A(24,28,30)           106.7543         estimate D2E/DX2                !
 ! A61   A(24,28,39)           108.3441         estimate D2E/DX2                !
 ! A62   A(24,28,47)           113.4065         estimate D2E/DX2                !
 ! A63   A(30,28,39)           106.7418         estimate D2E/DX2                !
 ! A64   A(30,28,47)           110.5069         estimate D2E/DX2                !
 ! A65   A(39,28,47)           110.7885         estimate D2E/DX2                !
 ! A66   A(25,29,30)           108.8019         estimate D2E/DX2                !
 ! A67   A(25,29,43)           101.4972         estimate D2E/DX2                !
 ! A68   A(25,29,51)           121.2806         estimate D2E/DX2                !
 ! A69   A(30,29,43)           112.5302         estimate D2E/DX2                !
 ! A70   A(30,29,51)           102.8961         estimate D2E/DX2                !
 ! A71   A(43,29,51)           110.1227         estimate D2E/DX2                !
 ! A72   A(28,30,29)           110.3672         estimate D2E/DX2                !
 ! A73   A(28,30,31)           108.0892         estimate D2E/DX2                !
 ! A74   A(28,30,32)           109.8002         estimate D2E/DX2                !
 ! A75   A(29,30,31)           109.3879         estimate D2E/DX2                !
 ! A76   A(29,30,32)           109.0132         estimate D2E/DX2                !
 ! A77   A(31,30,32)           110.1739         estimate D2E/DX2                !
 ! A78   A(23,35,36)           109.7188         estimate D2E/DX2                !
 ! A79   A(23,35,37)           110.028          estimate D2E/DX2                !
 ! A80   A(23,35,38)           109.3327         estimate D2E/DX2                !
 ! A81   A(36,35,37)           109.3898         estimate D2E/DX2                !
 ! A82   A(36,35,38)           109.066          estimate D2E/DX2                !
 ! A83   A(37,35,38)           109.2869         estimate D2E/DX2                !
 ! A84   A(28,39,40)           109.278          estimate D2E/DX2                !
 ! A85   A(28,39,41)           107.965          estimate D2E/DX2                !
 ! A86   A(28,39,42)           110.6757         estimate D2E/DX2                !
 ! A87   A(40,39,41)           109.5523         estimate D2E/DX2                !
 ! A88   A(40,39,42)           109.5136         estimate D2E/DX2                !
 ! A89   A(41,39,42)           109.8304         estimate D2E/DX2                !
 ! A90   A(29,43,44)           108.4245         estimate D2E/DX2                !
 ! A91   A(29,43,45)           110.1877         estimate D2E/DX2                !
 ! A92   A(29,43,46)           109.9688         estimate D2E/DX2                !
 ! A93   A(44,43,45)           109.3401         estimate D2E/DX2                !
 ! A94   A(44,43,46)           109.3375         estimate D2E/DX2                !
 ! A95   A(45,43,46)           109.5595         estimate D2E/DX2                !
 ! A96   A(28,47,48)           127.027          estimate D2E/DX2                !
 ! A97   A(28,47,49)           116.7228         estimate D2E/DX2                !
 ! A98   A(48,47,49)           116.2484         estimate D2E/DX2                !
 ! A99   A(47,48,67)           124.6712         estimate D2E/DX2                !
 ! A100  A(47,49,50)           118.043          estimate D2E/DX2                !
 ! A101  A(47,49,51)           124.4567         estimate D2E/DX2                !
 ! A102  A(50,49,51)           117.398          estimate D2E/DX2                !
 ! A103  A(29,51,49)           115.8676         estimate D2E/DX2                !
 ! A104  A(29,51,52)           110.1484         estimate D2E/DX2                !
 ! A105  A(29,51,53)           106.4936         estimate D2E/DX2                !
 ! A106  A(49,51,52)           109.8235         estimate D2E/DX2                !
 ! A107  A(49,51,53)           104.5586         estimate D2E/DX2                !
 ! A108  A(52,51,53)           109.6377         estimate D2E/DX2                !
 ! A109  A(1,54,55)            103.4737         estimate D2E/DX2                !
 ! A110  A(22,55,23)           119.9532         estimate D2E/DX2                !
 ! A111  A(22,55,54)           116.3363         estimate D2E/DX2                !
 ! A112  A(23,55,54)           123.7038         estimate D2E/DX2                !
 ! A113  A(57,56,58)           110.5618         estimate D2E/DX2                !
 ! A114  A(57,56,59)           108.5226         estimate D2E/DX2                !
 ! A115  A(57,56,66)           106.8521         estimate D2E/DX2                !
 ! A116  A(58,56,59)           107.0114         estimate D2E/DX2                !
 ! A117  A(58,56,66)           110.046          estimate D2E/DX2                !
 ! A118  A(59,56,66)           113.8589         estimate D2E/DX2                !
 ! A119  A(56,59,60)           109.9554         estimate D2E/DX2                !
 ! A120  A(56,59,61)           110.0939         estimate D2E/DX2                !
 ! A121  A(56,59,62)           110.0845         estimate D2E/DX2                !
 ! A122  A(60,59,61)           109.2499         estimate D2E/DX2                !
 ! A123  A(60,59,62)           108.7645         estimate D2E/DX2                !
 ! A124  A(61,59,62)           108.6608         estimate D2E/DX2                !
 ! A125  A(59,62,63)           109.8247         estimate D2E/DX2                !
 ! A126  A(59,62,64)           111.0729         estimate D2E/DX2                !
 ! A127  A(59,62,69)           108.1595         estimate D2E/DX2                !
 ! A128  A(63,62,64)           108.4324         estimate D2E/DX2                !
 ! A129  A(63,62,69)           110.0794         estimate D2E/DX2                !
 ! A130  A(64,62,69)           109.2681         estimate D2E/DX2                !
 ! A131  A(66,65,68)           121.4005         estimate D2E/DX2                !
 ! A132  A(66,65,69)           120.6372         estimate D2E/DX2                !
 ! A133  A(68,65,69)           117.9621         estimate D2E/DX2                !
 ! A134  A(56,66,65)           118.6616         estimate D2E/DX2                !
 ! A135  A(56,66,67)           125.6622         estimate D2E/DX2                !
 ! A136  A(65,66,67)           115.6757         estimate D2E/DX2                !
 ! A137  A(50,68,65)           124.2052         estimate D2E/DX2                !
 ! A138  A(62,69,65)           122.0282         estimate D2E/DX2                !
 ! A139  A(62,69,70)           116.9075         estimate D2E/DX2                !
 ! A140  A(65,69,70)           121.0598         estimate D2E/DX2                !
 ! A141  A(70,71,72)           120.5301         estimate D2E/DX2                !
 ! A142  A(70,71,73)           119.6429         estimate D2E/DX2                !
 ! A143  A(72,71,73)           119.8123         estimate D2E/DX2                !
 ! A144  A(71,73,74)           114.0305         estimate D2E/DX2                !
 ! A145  A(71,73,78)           104.4708         estimate D2E/DX2                !
 ! A146  A(71,73,82)           108.9286         estimate D2E/DX2                !
 ! A147  A(74,73,78)           110.4553         estimate D2E/DX2                !
 ! A148  A(74,73,82)           107.7677         estimate D2E/DX2                !
 ! A149  A(78,73,82)           111.2098         estimate D2E/DX2                !
 ! A150  A(73,74,75)           109.5111         estimate D2E/DX2                !
 ! A151  A(73,74,76)           109.6976         estimate D2E/DX2                !
 ! A152  A(73,74,77)           108.5879         estimate D2E/DX2                !
 ! A153  A(75,74,76)           109.9887         estimate D2E/DX2                !
 ! A154  A(75,74,77)           109.704          estimate D2E/DX2                !
 ! A155  A(76,74,77)           109.3294         estimate D2E/DX2                !
 ! A156  A(73,78,79)           108.8122         estimate D2E/DX2                !
 ! A157  A(73,78,80)           110.1145         estimate D2E/DX2                !
 ! A158  A(73,78,81)           109.3284         estimate D2E/DX2                !
 ! A159  A(79,78,80)           109.281          estimate D2E/DX2                !
 ! A160  A(79,78,81)           109.038          estimate D2E/DX2                !
 ! A161  A(80,78,81)           110.2387         estimate D2E/DX2                !
 ! A162  A(73,82,83)           109.4076         estimate D2E/DX2                !
 ! A163  A(73,82,84)           109.5918         estimate D2E/DX2                !
 ! A164  A(73,82,85)           109.578          estimate D2E/DX2                !
 ! A165  A(83,82,84)           109.1693         estimate D2E/DX2                !
 ! A166  A(83,82,85)           108.9252         estimate D2E/DX2                !
 ! A167  A(84,82,85)           110.151          estimate D2E/DX2                !
 ! A168  L(49,50,68,1,-1)      179.8997         estimate D2E/DX2                !
 ! A169  L(48,67,66,1,-1)      177.6578         estimate D2E/DX2                !
 ! A170  L(69,70,71,2,-1)      185.7257         estimate D2E/DX2                !
 ! A171  L(49,50,68,1,-2)      177.1364         estimate D2E/DX2                !
 ! A172  L(48,67,66,1,-2)      177.1874         estimate D2E/DX2                !
 ! A173  L(69,70,71,2,-2)      181.6688         estimate D2E/DX2                !
 ! D1    D(6,1,2,3)             -3.0862         estimate D2E/DX2                !
 ! D2    D(6,1,2,14)           176.5806         estimate D2E/DX2                !
 ! D3    D(54,1,2,3)           177.2571         estimate D2E/DX2                !
 ! D4    D(54,1,2,14)           -3.0761         estimate D2E/DX2                !
 ! D5    D(2,1,6,5)             -3.9052         estimate D2E/DX2                !
 ! D6    D(2,1,6,22)           175.1603         estimate D2E/DX2                !
 ! D7    D(54,1,6,5)           175.814          estimate D2E/DX2                !
 ! D8    D(54,1,6,22)           -5.1206         estimate D2E/DX2                !
 ! D9    D(2,1,54,55)          177.3283         estimate D2E/DX2                !
 ! D10   D(6,1,54,55)           -2.3687         estimate D2E/DX2                !
 ! D11   D(1,2,3,4)              1.9692         estimate D2E/DX2                !
 ! D12   D(1,2,3,19)          -177.7959         estimate D2E/DX2                !
 ! D13   D(14,2,3,4)          -177.6948         estimate D2E/DX2                !
 ! D14   D(14,2,3,19)            2.54           estimate D2E/DX2                !
 ! D15   D(2,3,4,5)              5.6431         estimate D2E/DX2                !
 ! D16   D(2,3,4,21)          -172.4999         estimate D2E/DX2                !
 ! D17   D(19,3,4,5)          -174.5963         estimate D2E/DX2                !
 ! D18   D(19,3,4,21)            7.2608         estimate D2E/DX2                !
 ! D19   D(2,3,19,8)          -179.9689         estimate D2E/DX2                !
 ! D20   D(2,3,19,20)           -0.7262         estimate D2E/DX2                !
 ! D21   D(4,3,19,8)             0.2719         estimate D2E/DX2                !
 ! D22   D(4,3,19,20)          179.5147         estimate D2E/DX2                !
 ! D23   D(3,4,5,6)            -12.1174         estimate D2E/DX2                !
 ! D24   D(3,4,5,15)           169.042          estimate D2E/DX2                !
 ! D25   D(21,4,5,6)           166.0829         estimate D2E/DX2                !
 ! D26   D(21,4,5,15)          -12.7577         estimate D2E/DX2                !
 ! D27   D(3,4,21,7)           -12.5852         estimate D2E/DX2                !
 ! D28   D(5,4,21,7)           169.2377         estimate D2E/DX2                !
 ! D29   D(4,5,6,1)             11.423          estimate D2E/DX2                !
 ! D30   D(4,5,6,22)          -167.5052         estimate D2E/DX2                !
 ! D31   D(15,5,6,1)          -169.7233         estimate D2E/DX2                !
 ! D32   D(15,5,6,22)           11.3486         estimate D2E/DX2                !
 ! D33   D(1,6,22,55)            9.5682         estimate D2E/DX2                !
 ! D34   D(5,6,22,55)         -171.3985         estimate D2E/DX2                !
 ! D35   D(13,7,8,9)            -5.0074         estimate D2E/DX2                !
 ! D36   D(13,7,8,19)          174.5798         estimate D2E/DX2                !
 ! D37   D(21,7,8,9)           173.9468         estimate D2E/DX2                !
 ! D38   D(21,7,8,19)           -6.466          estimate D2E/DX2                !
 ! D39   D(8,7,13,12)            5.6156         estimate D2E/DX2                !
 ! D40   D(8,7,13,18)         -174.9841         estimate D2E/DX2                !
 ! D41   D(21,7,13,12)        -173.3576         estimate D2E/DX2                !
 ! D42   D(21,7,13,18)           6.0428         estimate D2E/DX2                !
 ! D43   D(8,7,21,4)            12.1169         estimate D2E/DX2                !
 ! D44   D(13,7,21,4)         -168.9187         estimate D2E/DX2                !
 ! D45   D(7,8,9,10)          -178.8631         estimate D2E/DX2                !
 ! D46   D(7,8,9,11)             0.9021         estimate D2E/DX2                !
 ! D47   D(19,8,9,10)            1.5329         estimate D2E/DX2                !
 ! D48   D(19,8,9,11)         -178.702          estimate D2E/DX2                !
 ! D49   D(7,8,19,3)            -0.6879         estimate D2E/DX2                !
 ! D50   D(7,8,19,20)         -179.9319         estimate D2E/DX2                !
 ! D51   D(9,8,19,3)           178.8993         estimate D2E/DX2                !
 ! D52   D(9,8,19,20)           -0.3448         estimate D2E/DX2                !
 ! D53   D(8,9,11,12)            2.6323         estimate D2E/DX2                !
 ! D54   D(8,9,11,16)         -177.707          estimate D2E/DX2                !
 ! D55   D(10,9,11,12)        -177.6028         estimate D2E/DX2                !
 ! D56   D(10,9,11,16)           2.058          estimate D2E/DX2                !
 ! D57   D(9,11,12,13)          -2.0696         estimate D2E/DX2                !
 ! D58   D(9,11,12,17)         178.5878         estimate D2E/DX2                !
 ! D59   D(16,11,12,13)        178.2695         estimate D2E/DX2                !
 ! D60   D(16,11,12,17)         -1.0731         estimate D2E/DX2                !
 ! D61   D(11,12,13,7)          -2.0743         estimate D2E/DX2                !
 ! D62   D(11,12,13,18)        178.525          estimate D2E/DX2                !
 ! D63   D(17,12,13,7)         177.2683         estimate D2E/DX2                !
 ! D64   D(17,12,13,18)         -2.1325         estimate D2E/DX2                !
 ! D65   D(6,22,55,23)         167.1218         estimate D2E/DX2                !
 ! D66   D(6,22,55,54)         -11.9723         estimate D2E/DX2                !
 ! D67   D(25,23,24,26)       -177.5771         estimate D2E/DX2                !
 ! D68   D(25,23,24,28)        -55.5416         estimate D2E/DX2                !
 ! D69   D(25,23,24,33)         62.7131         estimate D2E/DX2                !
 ! D70   D(35,23,24,26)         62.925          estimate D2E/DX2                !
 ! D71   D(35,23,24,28)       -175.0395         estimate D2E/DX2                !
 ! D72   D(35,23,24,33)        -56.7848         estimate D2E/DX2                !
 ! D73   D(55,23,24,26)        -57.6299         estimate D2E/DX2                !
 ! D74   D(55,23,24,28)         64.4055         estimate D2E/DX2                !
 ! D75   D(55,23,24,33)       -177.3398         estimate D2E/DX2                !
 ! D76   D(24,23,25,27)        175.5706         estimate D2E/DX2                !
 ! D77   D(24,23,25,29)         52.5634         estimate D2E/DX2                !
 ! D78   D(24,23,25,34)        -65.228          estimate D2E/DX2                !
 ! D79   D(35,23,25,27)        -64.1409         estimate D2E/DX2                !
 ! D80   D(35,23,25,29)        172.8519         estimate D2E/DX2                !
 ! D81   D(35,23,25,34)         55.0605         estimate D2E/DX2                !
 ! D82   D(55,23,25,27)         56.1759         estimate D2E/DX2                !
 ! D83   D(55,23,25,29)        -66.8313         estimate D2E/DX2                !
 ! D84   D(55,23,25,34)        175.3773         estimate D2E/DX2                !
 ! D85   D(24,23,35,36)       -179.9102         estimate D2E/DX2                !
 ! D86   D(24,23,35,37)        -59.5106         estimate D2E/DX2                !
 ! D87   D(24,23,35,38)         60.5195         estimate D2E/DX2                !
 ! D88   D(25,23,35,36)         59.3528         estimate D2E/DX2                !
 ! D89   D(25,23,35,37)        179.7525         estimate D2E/DX2                !
 ! D90   D(25,23,35,38)        -60.2174         estimate D2E/DX2                !
 ! D91   D(55,23,35,36)        -60.4323         estimate D2E/DX2                !
 ! D92   D(55,23,35,37)         59.9673         estimate D2E/DX2                !
 ! D93   D(55,23,35,38)        179.9974         estimate D2E/DX2                !
 ! D94   D(24,23,55,22)         26.0906         estimate D2E/DX2                !
 ! D95   D(24,23,55,54)       -154.8853         estimate D2E/DX2                !
 ! D96   D(25,23,55,22)        146.6849         estimate D2E/DX2                !
 ! D97   D(25,23,55,54)        -34.291          estimate D2E/DX2                !
 ! D98   D(35,23,55,22)        -94.1333         estimate D2E/DX2                !
 ! D99   D(35,23,55,54)         84.8908         estimate D2E/DX2                !
 ! D100  D(23,24,28,30)         60.3566         estimate D2E/DX2                !
 ! D101  D(23,24,28,39)        174.9864         estimate D2E/DX2                !
 ! D102  D(23,24,28,47)        -61.5794         estimate D2E/DX2                !
 ! D103  D(26,24,28,30)       -178.2074         estimate D2E/DX2                !
 ! D104  D(26,24,28,39)        -63.5776         estimate D2E/DX2                !
 ! D105  D(26,24,28,47)         59.8566         estimate D2E/DX2                !
 ! D106  D(33,24,28,30)        -58.2318         estimate D2E/DX2                !
 ! D107  D(33,24,28,39)         56.398          estimate D2E/DX2                !
 ! D108  D(33,24,28,47)        179.8322         estimate D2E/DX2                !
 ! D109  D(23,25,29,30)        -55.2739         estimate D2E/DX2                !
 ! D110  D(23,25,29,43)       -174.1102         estimate D2E/DX2                !
 ! D111  D(23,25,29,51)         63.5889         estimate D2E/DX2                !
 ! D112  D(27,25,29,30)       -177.9536         estimate D2E/DX2                !
 ! D113  D(27,25,29,43)         63.2101         estimate D2E/DX2                !
 ! D114  D(27,25,29,51)        -59.0908         estimate D2E/DX2                !
 ! D115  D(34,25,29,30)         62.7905         estimate D2E/DX2                !
 ! D116  D(34,25,29,43)        -56.0458         estimate D2E/DX2                !
 ! D117  D(34,25,29,51)       -178.3467         estimate D2E/DX2                !
 ! D118  D(24,28,30,29)        -63.6937         estimate D2E/DX2                !
 ! D119  D(24,28,30,31)         55.8954         estimate D2E/DX2                !
 ! D120  D(24,28,30,32)        176.1072         estimate D2E/DX2                !
 ! D121  D(39,28,30,29)       -179.4015         estimate D2E/DX2                !
 ! D122  D(39,28,30,31)        -59.8124         estimate D2E/DX2                !
 ! D123  D(39,28,30,32)         60.3994         estimate D2E/DX2                !
 ! D124  D(47,28,30,29)         60.0535         estimate D2E/DX2                !
 ! D125  D(47,28,30,31)        179.6426         estimate D2E/DX2                !
 ! D126  D(47,28,30,32)        -60.1455         estimate D2E/DX2                !
 ! D127  D(24,28,39,40)       -175.3306         estimate D2E/DX2                !
 ! D128  D(24,28,39,41)        -56.2441         estimate D2E/DX2                !
 ! D129  D(24,28,39,42)         63.9903         estimate D2E/DX2                !
 ! D130  D(30,28,39,40)        -60.6926         estimate D2E/DX2                !
 ! D131  D(30,28,39,41)         58.3939         estimate D2E/DX2                !
 ! D132  D(30,28,39,42)        178.6283         estimate D2E/DX2                !
 ! D133  D(47,28,39,40)         59.6719         estimate D2E/DX2                !
 ! D134  D(47,28,39,41)        178.7583         estimate D2E/DX2                !
 ! D135  D(47,28,39,42)        -61.0072         estimate D2E/DX2                !
 ! D136  D(24,28,47,48)        -85.5877         estimate D2E/DX2                !
 ! D137  D(24,28,47,49)         94.9255         estimate D2E/DX2                !
 ! D138  D(30,28,47,48)        154.5926         estimate D2E/DX2                !
 ! D139  D(30,28,47,49)        -24.8942         estimate D2E/DX2                !
 ! D140  D(39,28,47,48)         36.4962         estimate D2E/DX2                !
 ! D141  D(39,28,47,49)       -142.9906         estimate D2E/DX2                !
 ! D142  D(25,29,30,28)         60.824          estimate D2E/DX2                !
 ! D143  D(25,29,30,31)        -57.9766         estimate D2E/DX2                !
 ! D144  D(25,29,30,32)       -178.505          estimate D2E/DX2                !
 ! D145  D(43,29,30,28)        172.4896         estimate D2E/DX2                !
 ! D146  D(43,29,30,31)         53.689          estimate D2E/DX2                !
 ! D147  D(43,29,30,32)        -66.8394         estimate D2E/DX2                !
 ! D148  D(51,29,30,28)        -69.0158         estimate D2E/DX2                !
 ! D149  D(51,29,30,31)        172.1836         estimate D2E/DX2                !
 ! D150  D(51,29,30,32)         51.6551         estimate D2E/DX2                !
 ! D151  D(25,29,43,44)         55.0519         estimate D2E/DX2                !
 ! D152  D(25,29,43,45)        174.6823         estimate D2E/DX2                !
 ! D153  D(25,29,43,46)        -64.4461         estimate D2E/DX2                !
 ! D154  D(30,29,43,44)        -61.0807         estimate D2E/DX2                !
 ! D155  D(30,29,43,45)         58.5497         estimate D2E/DX2                !
 ! D156  D(30,29,43,46)        179.4212         estimate D2E/DX2                !
 ! D157  D(51,29,43,44)       -175.2431         estimate D2E/DX2                !
 ! D158  D(51,29,43,45)        -55.6128         estimate D2E/DX2                !
 ! D159  D(51,29,43,46)         65.2588         estimate D2E/DX2                !
 ! D160  D(25,29,51,49)        -74.1569         estimate D2E/DX2                !
 ! D161  D(25,29,51,52)         51.2484         estimate D2E/DX2                !
 ! D162  D(25,29,51,53)        170.0631         estimate D2E/DX2                !
 ! D163  D(30,29,51,49)         47.5773         estimate D2E/DX2                !
 ! D164  D(30,29,51,52)        172.9825         estimate D2E/DX2                !
 ! D165  D(30,29,51,53)        -68.2028         estimate D2E/DX2                !
 ! D166  D(43,29,51,49)        167.7447         estimate D2E/DX2                !
 ! D167  D(43,29,51,52)        -66.85           estimate D2E/DX2                !
 ! D168  D(43,29,51,53)         51.9647         estimate D2E/DX2                !
 ! D169  D(28,47,48,67)       -179.9268         estimate D2E/DX2                !
 ! D170  D(49,47,48,67)         -0.4379         estimate D2E/DX2                !
 ! D171  D(28,47,49,50)       -178.2954         estimate D2E/DX2                !
 ! D172  D(28,47,49,51)          5.4861         estimate D2E/DX2                !
 ! D173  D(48,47,49,50)          2.1614         estimate D2E/DX2                !
 ! D174  D(48,47,49,51)       -174.0571         estimate D2E/DX2                !
 ! D175  D(47,48,66,56)       -177.7846         estimate D2E/DX2                !
 ! D176  D(47,48,66,65)          1.8434         estimate D2E/DX2                !
 ! D177  D(47,49,68,65)         -7.5123         estimate D2E/DX2                !
 ! D178  D(51,49,68,65)        168.9606         estimate D2E/DX2                !
 ! D179  D(47,49,51,29)        -17.8885         estimate D2E/DX2                !
 ! D180  D(47,49,51,52)       -143.4595         estimate D2E/DX2                !
 ! D181  D(47,49,51,53)         98.9781         estimate D2E/DX2                !
 ! D182  D(50,49,51,29)        165.8706         estimate D2E/DX2                !
 ! D183  D(50,49,51,52)         40.2996         estimate D2E/DX2                !
 ! D184  D(50,49,51,53)        -77.2627         estimate D2E/DX2                !
 ! D185  D(1,54,55,22)           9.2809         estimate D2E/DX2                !
 ! D186  D(1,54,55,23)        -169.7757         estimate D2E/DX2                !
 ! D187  D(57,56,59,60)        -55.621          estimate D2E/DX2                !
 ! D188  D(57,56,59,61)       -176.0393         estimate D2E/DX2                !
 ! D189  D(57,56,59,62)         64.1904         estimate D2E/DX2                !
 ! D190  D(58,56,59,60)         63.7101         estimate D2E/DX2                !
 ! D191  D(58,56,59,61)        -56.7082         estimate D2E/DX2                !
 ! D192  D(58,56,59,62)       -176.4785         estimate D2E/DX2                !
 ! D193  D(66,56,59,60)       -174.4689         estimate D2E/DX2                !
 ! D194  D(66,56,59,61)         65.1128         estimate D2E/DX2                !
 ! D195  D(66,56,59,62)        -54.6575         estimate D2E/DX2                !
 ! D196  D(57,56,66,65)        -90.1911         estimate D2E/DX2                !
 ! D197  D(57,56,66,67)         89.5388         estimate D2E/DX2                !
 ! D198  D(58,56,66,65)        149.7315         estimate D2E/DX2                !
 ! D199  D(58,56,66,67)        -30.5386         estimate D2E/DX2                !
 ! D200  D(59,56,66,65)         29.6053         estimate D2E/DX2                !
 ! D201  D(59,56,66,67)       -150.6648         estimate D2E/DX2                !
 ! D202  D(56,59,62,63)        174.3762         estimate D2E/DX2                !
 ! D203  D(56,59,62,64)        -65.6829         estimate D2E/DX2                !
 ! D204  D(56,59,62,69)         54.222          estimate D2E/DX2                !
 ! D205  D(60,59,62,63)        -65.0926         estimate D2E/DX2                !
 ! D206  D(60,59,62,64)         54.8483         estimate D2E/DX2                !
 ! D207  D(60,59,62,69)        174.7533         estimate D2E/DX2                !
 ! D208  D(61,59,62,63)         53.7399         estimate D2E/DX2                !
 ! D209  D(61,59,62,64)        173.6808         estimate D2E/DX2                !
 ! D210  D(61,59,62,69)        -66.4142         estimate D2E/DX2                !
 ! D211  D(59,62,69,65)        -34.5967         estimate D2E/DX2                !
 ! D212  D(59,62,69,70)        146.1691         estimate D2E/DX2                !
 ! D213  D(63,62,69,65)       -154.5912         estimate D2E/DX2                !
 ! D214  D(63,62,69,70)         26.1747         estimate D2E/DX2                !
 ! D215  D(64,62,69,65)         86.4352         estimate D2E/DX2                !
 ! D216  D(64,62,69,70)        -92.7989         estimate D2E/DX2                !
 ! D217  D(68,65,66,56)        172.927          estimate D2E/DX2                !
 ! D218  D(68,65,66,67)         -6.8295         estimate D2E/DX2                !
 ! D219  D(69,65,66,56)         -7.1853         estimate D2E/DX2                !
 ! D220  D(69,65,66,67)        173.0582         estimate D2E/DX2                !
 ! D221  D(66,65,68,50)          9.1273         estimate D2E/DX2                !
 ! D222  D(69,65,68,50)       -170.7633         estimate D2E/DX2                !
 ! D223  D(66,65,69,62)         10.2199         estimate D2E/DX2                !
 ! D224  D(66,65,69,70)       -170.5773         estimate D2E/DX2                !
 ! D225  D(68,65,69,62)       -169.8886         estimate D2E/DX2                !
 ! D226  D(68,65,69,70)          9.3142         estimate D2E/DX2                !
 ! D227  D(62,69,71,72)        -65.4266         estimate D2E/DX2                !
 ! D228  D(62,69,71,73)        111.3502         estimate D2E/DX2                !
 ! D229  D(65,69,71,72)        113.4138         estimate D2E/DX2                !
 ! D230  D(65,69,71,73)        -69.8094         estimate D2E/DX2                !
 ! D231  D(70,71,73,74)         92.5641         estimate D2E/DX2                !
 ! D232  D(70,71,73,78)       -146.7559         estimate D2E/DX2                !
 ! D233  D(70,71,73,82)        -27.8417         estimate D2E/DX2                !
 ! D234  D(72,71,73,74)        -88.8209         estimate D2E/DX2                !
 ! D235  D(72,71,73,78)         31.8591         estimate D2E/DX2                !
 ! D236  D(72,71,73,82)        150.7734         estimate D2E/DX2                !
 ! D237  D(71,73,74,75)        -62.4157         estimate D2E/DX2                !
 ! D238  D(71,73,74,76)         58.3851         estimate D2E/DX2                !
 ! D239  D(71,73,74,77)        177.8123         estimate D2E/DX2                !
 ! D240  D(78,73,74,75)       -179.6943         estimate D2E/DX2                !
 ! D241  D(78,73,74,76)        -58.8936         estimate D2E/DX2                !
 ! D242  D(78,73,74,77)         60.5336         estimate D2E/DX2                !
 ! D243  D(82,73,74,75)         58.6377         estimate D2E/DX2                !
 ! D244  D(82,73,74,76)        179.4385         estimate D2E/DX2                !
 ! D245  D(82,73,74,77)        -61.1344         estimate D2E/DX2                !
 ! D246  D(71,73,78,79)         56.684          estimate D2E/DX2                !
 ! D247  D(71,73,78,80)        176.4366         estimate D2E/DX2                !
 ! D248  D(71,73,78,81)        -62.3073         estimate D2E/DX2                !
 ! D249  D(74,73,78,79)        179.7174         estimate D2E/DX2                !
 ! D250  D(74,73,78,80)        -60.5299         estimate D2E/DX2                !
 ! D251  D(74,73,78,81)         60.7262         estimate D2E/DX2                !
 ! D252  D(82,73,78,79)        -60.6716         estimate D2E/DX2                !
 ! D253  D(82,73,78,80)         59.0811         estimate D2E/DX2                !
 ! D254  D(82,73,78,81)       -179.6628         estimate D2E/DX2                !
 ! D255  D(71,73,82,83)        -54.222          estimate D2E/DX2                !
 ! D256  D(71,73,82,84)         65.4431         estimate D2E/DX2                !
 ! D257  D(71,73,82,85)       -173.5803         estimate D2E/DX2                !
 ! D258  D(74,73,82,83)       -178.4132         estimate D2E/DX2                !
 ! D259  D(74,73,82,84)        -58.748          estimate D2E/DX2                !
 ! D260  D(74,73,82,85)         62.2285         estimate D2E/DX2                !
 ! D261  D(78,73,82,83)         60.3886         estimate D2E/DX2                !
 ! D262  D(78,73,82,84)       -179.9462         estimate D2E/DX2                !
 ! D263  D(78,73,82,85)        -58.9697         estimate D2E/DX2                !
 --------------------------------------------------------------------------------
 Trust Radius=3.00D-01 FncErr=1.00D-07 GrdErr=1.00D-06 EigMax=2.50D+02 EigMin=1.00D-04
 Number of steps in this run=    300 maximum allowed number of steps=    510.
 GradGradGradGradGradGradGradGradGradGradGradGradGradGradGradGradGradGrad

 Leave Link  103 at Thu Jul 11 13:41:21 2024, MaxMem=  2684354560 cpu:               0.3 elap:               0.0
 (Enter /mnt/data/applications/G16/g16/l202.exe)
 Symmetry turned off by external request.
 Stoichiometry    C36H41N3O4S
 Framework group  C1[X(C36H41N3O4S)]
 Deg. of freedom   249
 Full point group                 C1      NOp   1
                          Input orientation:                          
 ---------------------------------------------------------------------
 Center     Atomic      Atomic             Coordinates (Angstroms)
 Number     Number       Type             X           Y           Z
 ---------------------------------------------------------------------
      1          6           0       -1.373839    1.416784    0.168710
      2          6           0       -1.283709    2.655258   -0.325806
      3          6           0       -0.005774    3.086396   -0.735386
      4          6           0        1.085745    2.185105   -0.642322
      5          6           0        0.872062    0.863992   -0.265493
      6          6           0       -0.317032    0.566438    0.228415
      7          6           0        2.726111    4.304686   -1.699407
      8          6           0        1.552239    5.070584   -1.738036
      9          6           0        1.620758    6.377083   -2.227490
     10          1           0        0.741475    6.982097   -2.247898
     11          6           0        2.798315    6.882279   -2.672130
     12          6           0        3.952072    6.084983   -2.698966
     13          6           0        3.912250    4.812336   -2.241301
     14          1           0       -2.147524    3.283420   -0.409194
     15          1           0        1.635347    0.119175   -0.349934
     16          1           0        2.846661    7.896054   -3.010456
     17          1           0        4.870007    6.488398   -3.073233
     18          1           0        4.789733    4.198284   -2.285111
     19          6           0        0.179867    4.523520   -1.268462
     20          8           0       -0.824258    5.277447   -1.338173
     21         16           0        2.741293    2.710215   -0.949461
     22          8           0       -0.655785   -0.626082    0.888882
     23          6           0       -2.936234   -1.583828    1.363748
     24          6           0       -2.108633   -2.566919    2.195043
     25          6           0       -4.109158   -1.077913    2.160652
     26          1           0       -1.255834   -2.882534    1.625285
     27          1           0       -4.630135   -0.335991    1.592605
     28          6           0       -1.650484   -1.920703    3.547922
     29          6           0       -3.703967   -0.494879    3.556681
     30          6           0       -2.929517   -1.542164    4.314103
     31          1           0       -3.522775   -2.413955    4.414810
     32          1           0       -2.673353   -1.156495    5.279106
     33          1           0       -2.721140   -3.407865    2.427230
     34          1           0       -4.754093   -1.914302    2.347333
     35          6           0       -3.480355   -2.301302    0.083674
     36          1           0       -4.059118   -1.611434   -0.499561
     37          1           0       -2.666848   -2.667507   -0.504253
     38          1           0       -4.106257   -3.125273    0.376313
     39          6           0       -0.946466   -2.983825    4.370775
     40          1           0       -0.698928   -2.580793    5.331985
     41          1           0       -1.619483   -3.808572    4.490363
     42          1           0       -0.058752   -3.310070    3.882759
     43          6           0       -5.090676   -0.210372    4.186845
     44          1           0       -5.666799   -1.119966    4.166625
     45          1           0       -4.976593    0.113318    5.197289
     46          1           0       -5.599668    0.543861    3.624498
     47          6           0       -0.703427   -0.625980    3.352663
     48          8           0        0.632815   -0.616682    3.181179
     49          7           0       -1.314579    0.585875    3.372460
     50          1           0       -0.731387    1.427298    3.222482
     51          6           0       -2.768127    0.798688    3.677532
     52          1           0       -3.161552    1.606129    3.058828
     53          1           0       -2.786732    1.089988    4.698761
     54          7           0       -2.522668    0.739672    0.706759
     55          6           0       -2.072123   -0.446351    0.985007
     56          6           0        3.558100    1.738670    2.626991
     57          1           0        3.698667    1.719883    1.585363
     58          1           0        4.083581    0.919059    3.095693
     59          6           0        4.186773    3.078963    3.196161
     60          1           0        5.224201    3.152505    2.904393
     61          1           0        4.119187    3.092348    4.258009
     62          6           0        3.438484    4.280367    2.646551
     63          1           0        3.803556    5.181865    3.110494
     64          1           0        3.573563    4.366690    1.581627
     65          6           0        1.299241    2.720042    2.948448
     66          7           0        2.038372    1.605605    2.876576
     67          1           0        1.492293    0.666110    2.999457
     68          8           0        0.041294    2.670647    3.018162
     69          6           0        1.964637    4.098601    2.950717
     70          6           0        1.272317    5.183953    3.203546
     71          6           0        0.688461    6.322678    3.519490
     72          1           0        0.959569    6.839332    4.403952
     73          6           0       -0.363605    6.915944    2.586384
     74          6           0       -1.813214    6.501856    2.927894
     75          1           0       -1.914439    5.446324    2.828429
     76          1           0       -2.046363    6.798378    3.926854
     77          1           0       -2.480849    6.996095    2.244874
     78          6           0       -0.193099    8.419709    2.728913
     79          1           0        0.826604    8.678413    2.489850
     80          1           0       -0.847672    8.925607    2.064987
     81          1           0       -0.397336    8.704443    3.737208
     82          6           0       -0.070402    6.456035    1.146339
     83          1           0        0.946582    6.707680    0.889782
     84          1           0       -0.198144    5.401319    1.075381
     85          1           0       -0.730699    6.952556    0.470971
 ---------------------------------------------------------------------
 Rotational constants (GHZ):           0.1256646           0.0524405           0.0500575
 Leave Link  202 at Thu Jul 11 13:41:21 2024, MaxMem=  2684354560 cpu:               0.1 elap:               0.0
 (Enter /mnt/data/applications/G16/g16/l301.exe)
 General basis read from cards:  (5D, 7F)
 Centers:       1      2      3      4      5      6      7      8      9     11
 Centers:      12     13     19     23     24     25     28     29     30     35
 Centers:      39     43     47     51     55     56     59     62     65     69
 Centers:      70     71     73     74     78     82     10     14     15     16
 Centers:      17     18     26     27     31     32     33     34     36     37
 Centers:      38     40     41     42     44     45     46     50     52     53
 Centers:      57     58     60     61     63     64     67     72     75     76
 Centers:      77     79     80     81     83     84     85     20     22     48
 Centers:      68     49     54     66     21
 cc-pVTZ
 ****
 ======================================================================================================
                                       Pseudopotential Parameters
 ======================================================================================================
  Center     Atomic      Valence      Angular      Power
  Number     Number     Electrons     Momentum     of R      Exponent        Coefficient   SO-Coeffient
 ======================================================================================================
    1          6
                                   No pseudopotential on this center.
    2          6
                                   No pseudopotential on this center.
    3          6
                                   No pseudopotential on this center.
    4          6
                                   No pseudopotential on this center.
    5          6
                                   No pseudopotential on this center.
    6          6
                                   No pseudopotential on this center.
    7          6
                                   No pseudopotential on this center.
    8          6
                                   No pseudopotential on this center.
    9          6
                                   No pseudopotential on this center.
   10          1
                                   No pseudopotential on this center.
   11          6
                                   No pseudopotential on this center.
   12          6
                                   No pseudopotential on this center.
   13          6
                                   No pseudopotential on this center.
   14          1
                                   No pseudopotential on this center.
   15          1
                                   No pseudopotential on this center.
   16          1
                                   No pseudopotential on this center.
   17          1
                                   No pseudopotential on this center.
   18          1
                                   No pseudopotential on this center.
   19          6
                                   No pseudopotential on this center.
   20          8
                                   No pseudopotential on this center.
   21         16
                                   No pseudopotential on this center.
   22          8
                                   No pseudopotential on this center.
   23          6
                                   No pseudopotential on this center.
   24          6
                                   No pseudopotential on this center.
   25          6
                                   No pseudopotential on this center.
   26          1
                                   No pseudopotential on this center.
   27          1
                                   No pseudopotential on this center.
   28          6
                                   No pseudopotential on this center.
   29          6
                                   No pseudopotential on this center.
   30          6
                                   No pseudopotential on this center.
   31          1
                                   No pseudopotential on this center.
   32          1
                                   No pseudopotential on this center.
   33          1
                                   No pseudopotential on this center.
   34          1
                                   No pseudopotential on this center.
   35          6
                                   No pseudopotential on this center.
   36          1
                                   No pseudopotential on this center.
   37          1
                                   No pseudopotential on this center.
   38          1
                                   No pseudopotential on this center.
   39          6
                                   No pseudopotential on this center.
   40          1
                                   No pseudopotential on this center.
   41          1
                                   No pseudopotential on this center.
   42          1
                                   No pseudopotential on this center.
   43          6
                                   No pseudopotential on this center.
   44          1
                                   No pseudopotential on this center.
   45          1
                                   No pseudopotential on this center.
   46          1
                                   No pseudopotential on this center.
   47          6
                                   No pseudopotential on this center.
   48          8
                                   No pseudopotential on this center.
   49          7
                                   No pseudopotential on this center.
   50          1
                                   No pseudopotential on this center.
   51          6
                                   No pseudopotential on this center.
   52          1
                                   No pseudopotential on this center.
   53          1
                                   No pseudopotential on this center.
   54          7
                                   No pseudopotential on this center.
   55          6
                                   No pseudopotential on this center.
   56          6
                                   No pseudopotential on this center.
   57          1
                                   No pseudopotential on this center.
   58          1
                                   No pseudopotential on this center.
   59          6
                                   No pseudopotential on this center.
   60          1
                                   No pseudopotential on this center.
   61          1
                                   No pseudopotential on this center.
   62          6
                                   No pseudopotential on this center.
   63          1
                                   No pseudopotential on this center.
   64          1
                                   No pseudopotential on this center.
   65          6
                                   No pseudopotential on this center.
   66          7
                                   No pseudopotential on this center.
   67          1
                                   No pseudopotential on this center.
   68          8
                                   No pseudopotential on this center.
   69          6
                                   No pseudopotential on this center.
   70          6
                                   No pseudopotential on this center.
   71          6
                                   No pseudopotential on this center.
   72          1
                                   No pseudopotential on this center.
   73          6
                                   No pseudopotential on this center.
   74          6
                                   No pseudopotential on this center.
   75          1
                                   No pseudopotential on this center.
   76          1
                                   No pseudopotential on this center.
   77          1
                                   No pseudopotential on this center.
   78          6
                                   No pseudopotential on this center.
   79          1
                                   No pseudopotential on this center.
   80          1
                                   No pseudopotential on this center.
   81          1
                                   No pseudopotential on this center.
   82          6
                                   No pseudopotential on this center.
   83          1
                                   No pseudopotential on this center.
   84          1
                                   No pseudopotential on this center.
   85          1
                                   No pseudopotential on this center.
 ======================================================================================================
 Ernie: Thresh=  0.10000D-02 Tol=  0.10000D-05 Strict=F.
 Ernie:  142 primitive shells out of 1506 were deleted.
  1898 basis functions,  3027 primitive gaussians,  2159 cartesian basis functions
   163 alpha electrons      163 beta electrons
       nuclear repulsion energy      6032.8412233163 Hartrees.
 IExCor=  402 DFT=T Ex+Corr=B3LYP ExCW=0 ScaHFX=  0.200000
 ScaDFX=  0.800000  0.720000  1.000000  0.810000 ScalE2=  1.000000  1.000000
 IRadAn=      5 IRanWt=     -1 IRanGd=            0 ICorTp=0 IEmpDi=141
 NAtoms=   85 NActive=   85 NUniq=   85 SFac= 1.00D+00 NAtFMM=   60 NAOKFM=T Big=T
 Integral buffers will be    131072 words long.
 Raffenetti 2 integral format.
[...]
 111,-0.00000089,0.00000061,0.00000112,0.00000034,-0.00000259,-0.000004
 50,-0.00000279,-0.00000390,-0.00000061,-0.00000116,0.00000086,0.000000
 08,0.00000058,0.00000006,-0.00000089,0.00000069,-0.00000057,0.00000160
 ,-0.00000008,0.00000220,-0.00000325,0.00000117,-0.00000127,0.00000015,
 0.00000039,-0.00000065,0.00000014,0.00000087,-0.00000167,0.00000130,-0
 .00000123,0.00001730,0.00000978,-0.00000698,-0.00003128,-0.00003370,0.
 00001665,-0.00003050,-0.00002789,0.00001200,0.00005456,0.00006393,-0.0
 0000631,0.00002341,-0.00001119,-0.00000245,-0.00000108,-0.00000304,-0.
 00000367,-0.00000322,0.00000073,0.00000434,-0.00002127,-0.00002466,0.0
 0000956,0.00003246,-0.00000176,0.00000275,-0.00006752,0.00001022,-0.00
 000842,0.00001871,0.00000387,-0.00000822,0.00001276,-0.00000933,0.0000
 0526,0.00003295,0.00002982,-0.00002422,0.00002035,-0.00002037,0.000001
 17,-0.00000293,0.00000170,0.00000625,-0.00007201,-0.00001876,0.0000188
 5,0.00003195,0.00000306,0.00000611,0.00001258,-0.00000279,-0.00001679,
 0.00000366,0.00047755,-0.00014094,0.00003571,-0.00021188,-0.00000198,0
 .00003780,0.00005737,-0.00002595,-0.00022389,-0.00021621,0.00015723,0.
 00012774,-0.00000565,0.00048409,-0.00027401,-0.00033279,-0.00044361,0.
 00006050,-0.00035424,0.00013709,0.00003651,0.00005579,-0.00000102,-0.0
 0292000,-0.00207538,0.00035029,0.00038768,0.00081648,0.00013051,0.0001
 9486,0.00007253,0.00012765,-0.00000773,0.00003819,-0.00016223,-0.00002
 042,0.00004637,-0.00001654,0.00027640,0.00017808,-0.00102893,0.0003147
 6,0.00028960,-0.00005100,0.00004987,-0.00022135,0.00016995,0.00040947,
 -0.00042579,-0.00000882,-0.08714512,-0.09422594,0.00828912,-0.01072474
 ,-0.02682886,0.00190165,0.09122179,0.00000109,-0.00005191,0.00000585,-
 0.00001757,0.00002180,0.00000652,-0.00000355,0.00000882,-0.00006365,-0
 .00004186,0.00000782,0.00002163,0.00001072,0.00000759,0.00000496,-0.00
 003568,0.00001136,0.00000743,-0.00002797,0.00005837,0.00000086,0.00009
 269,0.00001334,0.00009116,0.00003489,-0.00002592,0.00002443,-0.0000211
 2,-0.00000336,-0.00001335,-0.00000143,0.00000046,-0.00000705,0.0000162
 5,-0.00000489,0.00000300,0.00000997,0.00001538,-0.00001134,0.00003118,
 -0.00001369,-0.00004735,0.00000047,-0.00000133,0.00000077,0.00000279,0
 .00000326,0.,0.00000084,0.00000057,-0.00000142,0.00000348,0.00000086,-
 0.00000193,-0.00058811,0.00022815,-0.00040767,0.00059540,-0.00053831,-
 0.00065953,0.00001692,-0.00002250,-0.00000701,-0.00000781,-0.00000558,
 0.00000351,-0.00000025,-0.00000089,-0.00000128,-0.00000090,0.00000041,
 0.00000003,-0.00000020,0.00000040,-0.00000063,0.00000029,0.00000012,0.
 00000002,0.00000029,-0.00000030,0.00000045,-0.00000096,0.00000048,0.00
 000054,0.00000103,0.00000133,0.00000056,-0.00000010,-0.00000037,-0.000
 00141,-0.00000021,-0.00000104,0.00000026,0.00000011,0.00000016,0.00000
 083,-0.00000013,-0.00000056,0.00000035,-0.00000031,-0.00000063,-0.0000
 0005,-0.00000016,-0.00000025,0.00000195,-0.00000035,0.00000047,-0.0000
 0024,0.00000020,-0.00000005,-0.00000029,-0.00000072,-0.00000104,-0.000
 00015,-0.00000077,-0.00000089,-0.00000070,0.00000027,0.00000006,-0.000
 00027,-0.00000003,0.00000052,0.00000012,-0.00000013,0.00000040,-0.0000
 0009,0.00000071,0.00000002,0.00000005,-0.00000031,-0.00000051,0.000000
 23,-0.00000005,-0.00000002,-0.00000027,-0.00000002,0.00000045,-0.00000
 011,-0.00000087,0.00000378,0.00000065,0.00000012,-0.00000229,0.0000007
 1,-0.00000306,-0.00000613,0.00000202,0.00000540,0.00001002,-0.00000948
 ,0.00000088,0.00000199,-0.00000252,-0.00000054,-0.00000053,0.00000135,
 0.00000017,0.00000036,0.00000016,0.00001044,0.00001351,-0.00000153,0.0
 0000509,-0.00001222,0.00000521,-0.00001090,0.00000370,-0.00000170,0.00
 000309,-0.00000027,-0.00000110,0.00000209,-0.00000206,-0.00000004,0.00
 001958,0.00000623,-0.00001463,0.00000437,-0.00000884,0.00000057,-0.000
 00214,0.00000602,-0.00000335,-0.00002326,0.00000467,0.00006713,0.00000
 938,0.00000246,-0.00000339,-0.00001202,-0.00000378,-0.00001498,-0.0000
 1886,0.00019561,0.00000976,0.00001214,-0.00005866,-0.00003519,0.000002
 93,0.00000347,-0.00000336,0.00013106,-0.00041863,0.00041874,0.00005356
 ,0.00036859,0.00038246,0.00007325,-0.00011772,0.00010699,0.00054256,0.
 00042668,0.00066086,0.00009473,0.00010554,-0.00018682,-0.00489866,-0.0
 1319426,0.00145313,-0.00038424,0.00029021,0.00095078,0.00059239,0.0002
 0969,-0.00037957,0.00007393,0.00033017,-0.00008784,-0.00002052,-0.0000
 3073,-0.00002691,0.00020070,0.00007175,-0.00372955,-0.00002887,0.00015
 984,0.00016048,0.00013125,0.00039703,0.00009668,-0.00056629,-0.0008534
 2,-0.00008406,-0.09482714,-0.26700296,0.01866840,0.00105957,0.00306441
 ,0.00004910,0.10449611,0.29169339,-0.00010389,0.00001606,0.00004957,-0
 .00005993,-0.00003957,0.00003068,0.00001952,0.00010852,-0.00007866,0.0
 0017269,-0.00000514,-0.00001465,-0.00002531,0.00001128,-0.00001021,0.0
 0002037,-0.00006868,0.00001232,0.00003044,-0.00008856,0.00003997,-0.00
 012153,-0.00006829,-0.00001053,-0.00001947,0.00009135,-0.00010194,0.00
 004759,-0.00000348,0.00003919,-0.00009321,-0.00002968,-0.00000951,-0.0
 0000236,-0.00004283,0.00002134,0.00003009,-0.00001031,-0.00000355,-0.0
 0005967,0.00000737,-0.00001559,-0.00000041,0.00000343,-0.00000181,-0.0
 0000666,-0.00000737,0.00000263,-0.00000063,-0.00000366,0.00000324,-0.0
 0000745,0.00000016,-0.00000240,0.00086109,-0.00053185,-0.00038422,-0.0
 0066660,0.00030514,0.00026638,-0.00006771,0.00004039,0.00001670,0.0000
 5302,0.00006679,-0.00003608,-0.00000272,-0.00000174,0.00001324,0.00000
 827,0.00000058,0.00000334,-0.00000505,0.00000689,0.00000257,0.00000086
 ,-0.00000289,0.00000051,-0.00000200,-0.00000029,0.00000029,-0.00000040
 ,0.00000048,0.00000242,0.00000276,0.00000090,0.00000367,-0.00000143,-0
 .00000165,-0.00000019,0.00000030,-0.00000009,0.00000036,0.00000012,-0.
 00000003,-0.00000162,-0.00000066,0.00000240,-0.00000378,0.00000350,0.0
 0000090,-0.00000311,0.00000466,0.00000595,-0.00001475,-0.00000044,-0.0
 0000109,-0.00000015,-0.00000080,-0.00000152,-0.00000059,0.00000299,0.0
 0000537,0.00000368,0.00000011,-0.00000138,-0.00000125,-0.00000055,0.00
 000054,-0.00000099,0.,-0.00000046,0.00000027,0.00000036,-0.00000030,0.
 00000011,-0.00000182,-0.00000065,-0.00000195,-0.00000014,-0.00000028,0
 .00000013,0.00000075,-0.00000013,-0.00000146,0.00000074,-0.00000017,0.
 00000076,-0.00000421,0.00000172,0.00000672,0.00000112,-0.00000799,-0.0
 0000504,-0.00000736,-0.00001525,-0.00001424,0.00001604,0.00002499,0.00
 000781,-0.00000526,-0.00000195,0.00000105,0.00000081,0.00000437,0.0000
 0382,0.00000055,0.00000018,-0.00000371,0.00002512,0.00004710,-0.000026
 65,-0.00001740,-0.00001159,0.00000674,-0.00001368,-0.00000058,0.000004
 26,0.00001262,-0.00000397,-0.00000367,0.00000312,-0.00000107,-0.000002
 29,-0.00000673,0.00000248,-0.00000065,0.00000087,0.00000245,0.00000050
 ,-0.00000222,-0.00000131,0.00000181,0.00002809,-0.00000483,-0.00005164
 ,-0.00000242,-0.00000280,-0.00000174,0.00002376,0.00000005,0.00001036,
 -0.00007107,-0.00012151,0.00014932,0.00004330,-0.00003099,-0.00000834,
 0.00000512,0.00001075,0.00000358,0.00003667,0.00017507,-0.00028059,-0.
 00012076,0.00010090,-0.00012721,-0.00041863,0.00055914,-0.00010446,0.0
 0041331,-0.00041738,0.00151195,0.00030533,0.00000736,0.00008048,-0.011
 89364,-0.02792413,0.00219825,-0.00102955,-0.00026277,0.00139523,0.0004
 6206,0.00027230,-0.00027584,-0.00018195,0.00029762,0.00015335,0.000092
 13,0.00002753,-0.00006787,-0.00023162,-0.00167002,-0.00544541,-0.00010
 966,0.00018581,-0.00000247,0.00022850,-0.00001736,0.00006151,-0.000735
 26,-0.00183239,0.00007075,0.00919333,0.02022981,-0.04856582,0.00466581
 ,0.01317405,-0.00158910,-0.00880265,-0.01865471,0.05290374,0.00000173,
 -0.00000186,-0.00000428,0.00003150,-0.00000954,-0.00000711,0.00000334,
 -0.00011124,0.00007067,-0.00005766,0.00001746,0.00000033,-0.00000272,-
 0.00001193,0.00000668,0.00000559,0.00000209,-0.00000118,0.00011060,-0.
 00002122,0.00001898,-0.00002514,0.00002704,0.00008427,-0.00009637,0.00
 009414,-0.00009048,0.00003729,-0.00005234,0.00004317,0.00009256,-0.000
 02168,-0.00000406,-0.00002566,0.00005176,-0.00000071,-0.00002874,-0.00
 004980,0.00000552,-0.00000269,0.00000397,-0.00000116,-0.00000145,-0.00
 000246,-0.00000248,-0.00000325,-0.00000220,-0.00000703,0.00000360,-0.0
 0000161,-0.00000123,-0.00000033,-0.00000243,-0.00000118,-0.00024199,0.
 00012238,-0.00012050,0.00014046,-0.00036783,-0.00037390,0.00002191,-0.
 00000763,-0.00000576,-0.00001105,-0.00000877,0.00000653,-0.00000047,0.
 00000050,-0.00000017,0.00000041,-0.00000028,-0.00000237,0.00000029,-0.
 00000022,-0.00000063,-0.00000022,-0.00000008,-0.00000005,-0.00000020,-
 0.00000021,-0.00000009,0.00000050,0.00000078,0.00000126,0.00000046,-0.
 00000204,-0.00000136,-0.00000025,0.00000126,0.00000139,0.00000111,0.00
 000100,-0.00000035,-0.00000021,-0.00000040,-0.00000001,0.00000090,0.00
 000126,0.00000086,0.00000008,0.00000058,0.00000033,0.00000007,-0.00000
 054,-0.00000015,0.00000011,-0.00000002,0.00000011,-0.00000022,0.000000
 26,0.00000025,0.00000003,0.00000015,-0.00000005,0.00000171,0.00000014,
 0.00000112,-0.00000018,-0.00000034,-0.00000014,0.00000038,0.00000145,-
 0.00000046,-0.00000025,-0.00000038,-0.00000002,0.00000033,0.00000087,0
 .00000086,0.00000078,0.00000063,-0.00000019,-0.00000019,-0.00000018,0.
 00000016,-0.00000031,-0.00000007,-0.00000023,-0.00000463,-0.00000479,-
 0.00000016,0.00001579,0.00002562,-0.00000804,0.00001552,0.00001997,-0.
 00000206,-0.00002967,-0.00004180,0.00000596,-0.00000736,0.00000449,0.0
 0000129,0.00000052,-0.00000124,-0.00000014,0.00000119,-0.00000069,-0.0
 0000043,-0.00000077,0.00000464,0.00000041,0.00000818,-0.00000793,-0.00
 000198,0.00003724,-0.00001907,-0.00001164,-0.00001077,-0.00000025,0.00
 000737,-0.00000672,0.00001138,-0.00000205,-0.00003119,-0.00002396,0.00
 003933,-0.00002163,0.00002307,-0.00000382,0.00000272,0.00000067,-0.000
 00719,0.00005560,0.00005046,-0.00002851,-0.00000448,-0.00000327,0.0000
 0010,-0.00002568,-0.00000914,0.00000293,-0.00024748,-0.00034440,0.0000
 9911,0.00003051,0.00016959,-0.00002221,-0.00003378,-0.00003407,0.00001
 633,0.00017576,0.00010448,-0.00002570,0.00006684,0.00009914,-0.0000851
 1,0.00008851,-0.00025365,-0.00014194,0.00069892,-0.00053805,-0.0003366
 7,0.00019012,0.00029680,-0.00024873,-0.00329901,0.00138108,-0.00105046
 ,0.00045221,-0.00024460,0.00075792,0.00000141,-0.00004059,0.00001445,0
 .00008480,-0.00019161,-0.00007416,0.00030874,0.00003557,0.00007701,-0.
 00002396,0.00047719,0.00006512,-0.00003050,0.00001704,-0.00004378,0.00
 006101,-0.00039015,-0.00001321,0.00009843,-0.00015997,0.00013994,-0.14
 011809,0.08713372,-0.08989795,-0.01629930,0.01613964,-0.01697896,0.008
 38585,-0.00679633,0.00808703,0.14945894,-0.00000206,0.00005226,-0.0000
 2508,0.00000341,-0.00001634,-0.00002198,-0.00002158,0.00005301,-0.0001
 0618,0.00001092,0.00003335,-0.00001708,-0.00000767,-0.00001717,0.00000
 895,0.00003252,0.00000265,-0.00000253,-0.00002294,-0.00003265,0.000007
 72,-0.00009813,-0.00004783,-0.00004500,0.00004074,-0.00002317,-0.00000
 093,0.00001647,0.00002372,-0.00002380,-0.00005309,0.00000605,-0.000015
 14,0.00000514,-0.00002966,0.00000966,0.00001514,0.00001293,-0.00000895
 ,0.00001183,0.00000009,0.00002344,0.00000021,0.00000231,0.00000154,0.0
 0000097,-0.00000017,0.00000347,-0.00000106,0.00000076,0.00000154,-0.00
 000136,0.00000089,0.00000191,0.00040156,-0.00019436,0.00029456,-0.0004
 9491,0.00047956,0.00025841,-0.00002474,0.00003005,0.00000857,0.0000027
 1,-0.00000321,0.00000029,0.00000071,0.00000035,-0.00000078,-0.00000096
 ,-0.00000052,0.00000270,0.00000071,-0.00000094,0.00000112,-0.00000005,
 0.00000059,0.00000004,0.00000020,0.00000045,-0.00000029,-0.00000069,-0
 .00000094,-0.00000171,-0.00000057,0.00000289,0.00000147,0.00000035,-0.
 00000145,-0.00000145,-0.00000121,-0.00000121,0.00000043,0.00000012,0.0
 0000042,-0.00000006,-0.00000082,-0.00000141,-0.00000075,-0.00000054,-0
 .00000090,-0.00000017,0.00000029,0.00000006,0.00000128,-0.00000042,0.0
 0000029,-0.00000046,0.00000008,-0.00000016,-0.00000014,-0.00000021,-0.
 00000057,-0.00000024,-0.00000208,-0.00000050,-0.00000111,0.00000024,0.
 00000028,-0.00000011,-0.00000025,-0.00000128,0.00000052,-0.00000002,0.
 00000072,0.00000004,0.00000060,-0.00000188,-0.00000016,-0.00000109,-0.
 00000050,0.00000031,0.00000001,0.00000011,-0.00000028,-0.00000041,0.00
 000072,-0.00000025,0.00000568,0.00000746,-0.00000081,-0.00001662,-0.00
 002500,0.00000884,-0.00001950,-0.00002296,0.00000371,0.00003412,0.0000
 4826,-0.00000900,0.00001063,-0.00000591,-0.00000181,0.00000044,0.00000
 101,0.00000049,-0.00000126,0.00000072,0.00000075,-0.00000721,-0.000009
 94,0.00000471,-0.00000449,0.00000903,0.00000159,-0.00004178,0.00001162
 ,0.00000261,0.00001340,0.00000004,-0.00000482,0.00000825,-0.00000862,0
 .00000193,0.00002660,0.00002327,-0.00002962,0.00001647,-0.00001718,0.0
 0000130,-0.00000357,0.00000262,0.00000352,-0.00006720,-0.00001308,0.00
 002270,0.00001445,-0.00000080,-0.00000138,0.00000740,0.00000372,-0.000
 01852,0.00008447,0.00037383,-0.00003938,0.00000736,-0.00016556,-0.0000
 0341,0.00002719,0.00003559,-0.00002062,-0.00003457,-0.00016267,0.00009
 473,-0.00010545,0.00010694,0.00039717,0.00025801,-0.00040814,0.0000143
 8,-0.00034535,-0.00061181,-0.00268261,-0.00023950,0.00054829,-0.000509
 98,-0.00889683,0.00644479,-0.00833090,-0.00034395,0.00040178,0.0001933
 5,0.00009325,-0.00003768,0.00001183,-0.00021734,0.00005171,0.00014362,
 -0.00001243,0.00006079,0.00006384,-0.00044255,0.00099753,-0.00029833,-
 0.00003001,-0.00006780,0.00001483,0.00009420,-0.00005721,-0.00010687,0
 .00008931,0.00026390,0.00016385,0.08780969,-0.12838561,0.08473785,0.00
 061303,-0.00147323,0.00043720,0.01834703,-0.01536520,0.01609651,-0.096
 53942,0.13711780,0.00000301,-0.00000785,0.00000369,0.00002703,0.000011
 38,-0.00001126,-0.00001819,-0.00009976,0.00002560,-0.00004325,0.000022
 73,-0.00000854,-0.00000159,-0.00000030,0.00000288,-0.00000378,0.000003
 73,0.00000364,-0.00005436,0.00005933,-0.00003376,0.00010016,0.00002282
 ,-0.00010614,-0.00002711,-0.00004801,0.00004473,-0.00001027,0.00000218
 ,-0.00002451,0.00001033,0.00000014,0.00001700,0.00000563,0.00001276,0.
 00000295,-0.00000853,0.00000492,0.00000386,-0.00000573,0.00000208,-0.0
 0000109,-0.00000006,-0.00000197,-0.00000239,0.00000141,0.00000202,0.00
 000218,-0.00000048,-0.00000069,-0.00000435,0.00000175,-0.00000047,-0.0
 0000039,-0.00004876,0.00013217,0.00016826,-0.00008647,-0.00011254,-0.0
 0011157,0.00002861,-0.00002600,0.00001414,-0.00000624,-0.00000743,0.00
 000428,-0.00000030,0.00000039,-0.00000014,0.00000057,0.00000049,-0.000
 00317,-0.00000018,-0.00000015,-0.00000102,-0.00000026,-0.00000010,-0.0
 0000007,0.00000016,-0.00000011,0.00000029,0.00000119,0.00000125,0.0000
 0097,0.00000153,-0.00000283,-0.00000152,-0.00000043,0.00000155,0.00000
 163,0.00000139,0.00000093,-0.00000042,-0.00000023,-0.00000041,-0.00000
 016,0.00000076,0.00000092,0.00000119,0.00000006,0.00000047,0.00000044,
 -0.00000030,-0.00000083,0.00000016,0.00000031,-0.00000012,0.00000048,0
 .,0.00000026,0.00000025,-0.00000009,-0.00000002,-0.00000024,0.00000233
 ,0.00000070,0.00000146,-0.00000025,-0.00000036,0.00000005,0.00000022,0
 .00000120,-0.00000052,0.00000003,-0.00000074,-0.00000007,-0.00000027,0
 .00000183,0.00000046,0.00000096,0.00000025,-0.00000033,-0.00000013,-0.
 00000005,0.00000016,0.00000044,-0.00000050,0.00000025,-0.00001081,-0.0
 0000443,-0.00000096,0.00002436,0.00003038,-0.00000911,0.00002296,0.000
 02549,-0.00000146,-0.00004159,-0.00005559,0.00000703,-0.00001247,0.000
 00686,0.00000028,0.00000084,-0.00000111,0.00000073,0.00000161,-0.00000
 089,-0.00000090,0.00000060,-0.00000064,0.00000167,0.00000221,-0.000003
 33,-0.00000360,0.00005268,-0.00002389,-0.00002185,-0.00001408,0.000001
 27,0.00001266,-0.00000969,0.00001233,-0.00000129,-0.00004420,-0.000025
 55,0.00006290,-0.00002626,0.00002640,-0.00000952,0.00000736,-0.0000028
 0,-0.00000978,0.00003172,0.00012271,0.00002111,-0.00000487,-0.00001178
 ,-0.00001505,-0.00007506,0.00001697,0.00001393,-0.00024283,-0.00036215
 ,0.00010601,0.00002379,0.00022417,-0.00002996,-0.00004422,-0.00003920,
 0.00001970,0.00015352,0.00018649,-0.00007131,0.00007851,0.00039854,0.0
 0030967,0.00058279,-0.00124742,-0.00037032,-0.00009421,-0.00309746,-0.
 00472769,-0.00112011,0.00085040,-0.00098180,-0.01769822,0.01705412,-0.
 01812636,-0.00106751,0.00106516,0.00110220,0.00009312,-0.00003807,-0.0
 0005604,0.00004460,-0.00022889,0.00041634,0.00079097,-0.00037230,-0.00
 009798,0.00015498,0.00141224,0.00095234,0.00001453,-0.00012921,0.00000
 518,0.00001377,-0.00077032,0.00026113,0.00039037,-0.00002285,0.0001867
 4,-0.08897581,0.08329883,-0.13192095,0.00793086,-0.00880897,0.00875099
 ,-0.00086028,0.00125583,-0.00180886,0.10005545,-0.09071659,0.14604484\
 \-0.00000424,0.00000158,-0.00000032,-0.00000159,-0.00000275,0.00000208
 ,0.00000109,0.00000054,-0.00000324,0.00000249,0.00000271,-0.00000107,-
 0.00000162,-0.00000417,0.00000035,0.00000474,0.00000200,0.00000044,-0.
 00000120,0.00000050,-0.00000141,0.00000224,-0.00000364,-0.00000628,0.0
 0000319,0.00000413,-0.00000137,-0.00000086,0.00000021,0.00000033,-0.00
 000367,0.00000041,0.00000091,0.00000126,-0.00000266,0.00000036,0.00000
 158,0.00000463,-0.00000081,0.00000025,0.00000135,0.00000002,0.00000039
 ,0.00000143,0.00000149,-0.00000015,0.00000041,0.00000012,-0.00000059,0
 .00000123,0.00000086,-0.00000045,0.00000003,0.00000092,-0.00000065,0.0
 0000207,0.00001242,-0.00000292,-0.00000119,-0.00000230,-0.00000153,-0.
 00000092,-0.00000196,-0.00000349,-0.00000139,-0.00000079,0.00000120,-0
 .00000751,0.00000164,-0.00000320,0.00000453,-0.00000752,-0.00000431,0.
 00000314,-0.00000193,0.00000119,-0.00000049,-0.00000031,0.00000073,-0.
 00000120,0.00000109,0.00000415,0.00000056,0.00000523,-0.00000123,-0.00
 000059,0.,-0.00000218,-0.00000041,0.00000058,0.00000036,-0.00000114,-0
 .00000033,0.00000014,-0.00000066,-0.00000042,0.00000023,0.00000061,-0.
 00000046,0.00000082,0.00000028,-0.00000057,-0.00000143,-0.00000122,-0.
 00000123,0.00000073,-0.00000007,0.00000014,0.00000045,0.00000011,-0.00
 000022,0.00000059,-0.00000019,-0.00000007,-0.00000190,-0.00000161,-0.0
 0000069,0.00000058,-0.00000026,-0.00000029,0.00000078,-0.00000065,-0.0
 0000046,0.00000109,-0.00000014,-0.00000062,0.00000090,-0.00000117,0.00
 000023,0.00000063,-0.00000074,-0.00000057,0.00000025,-0.00000047,-0.00
 000020,-0.00000006,-0.00000040,-0.00000019,-0.00000172,-0.00000487,-0.
 00000412,0.00000450,0.00000122,0.00000052,-0.00000692,0.00000074,-0.00
 000966,0.00000983,0.00001049,-0.00000230,0.00000269,-0.00000241,0.0000
 0296,0.00000085,-0.00000058,0.00000124,-0.00000096,0.00000025,0.000000
 81,-0.00000216,0.00000043,-0.00000623,0.00001312,0.00000161,0.00000522
 ,-0.00000435,0.00000126,-0.00000228,0.00000101,-0.00000110,-0.00000130
 ,0.00000073,0.,-0.00000008,0.00000185,0.00000137,0.00000013,0.00000020
 ,-0.00000022,0.00000014,-0.00000003,0.00000071,0.00000019,-0.00000598,
 -0.00000190,0.00000228,0.00000053,0.00000106,0.00000040,0.00000084,0.0
 0000141,0.00000235,-0.00001145,-0.00000040,0.00000227,0.00000253,0.000
 00025,0.00000450,0.00000032,-0.00000458,0.00000053,-0.00000454,-0.0000
 0261,0.00000191,0.00001233,0.00000455,-0.00000673,-0.00000323,-0.00000
 176,0.00000761,0.00000043,-0.00000042,-0.00000762,0.00000133,0.0000000
 3,0.00000094,-0.00000097,0.00000078,0.00000276,-0.00000123,-0.00000088
 ,0.00000021,0.00000021,-0.00000038,0.00000100,-0.00000090,-0.00000047,
 0.00000058,-0.00000140,0.00000027,0.00000068,-0.00000161,-0.00000234,0
 .00000148,-0.00000016,0.00000055,0.00000066,-0.00000021,-0.00000015,0.
 00000045,-0.00000093,-0.00000007,0.00000043,-0.00000005,-0.00000004,0.
 00000445,0.00000014,-0.00000031,-0.00000056,0.00000062,0.00000091,-0.0
 0000071,-0.00000007,0.00000075,0.00000133\\\@


 Everything starts as somebody's daydream.
                           -- Larry Niven
 Job cpu time:      41 days 17 hours 10 minutes 22.0 seconds.
 Elapsed time:       3 days 11 hours 39 minutes 57.9 seconds.
 File lengths (MBytes):  RWF=  17535 Int=      0 D2E=      0 Chk=    307 Scr=      1
 Normal termination of Gaussian 16 at Sun Jul 21 06:05:07 2024.
