 Entering Gaussian System, Link 0=g16
 Initial command:
 /mnt/data/applications/G16/g16/l1.exe "/scratch/Gau-30212.inp" -scrdir="/scratch/"
 Entering Link 1 = /mnt/data/applications/G16/g16/l1.exe PID=     30213.
  
 Copyright (c) 1988,1990,1992,1993,1995,1998,2003,2009,2016,
            Gaussian, Inc.  All Rights Reserved.
  
 This is part of the Gaussian(R) 16 program.  It is based on
 the Gaussian(R) 09 system (copyright 2009, Gaussian, Inc.),
 the Gaussian(R) 03 system (copyright 2003, Gaussian, Inc.),
 the Gaussian(R) 98 system (copyright 1998, Gaussian, Inc.),
 the Gaussian(R) 94 system (copyright 1995, Gaussian, Inc.),
 the Gaussian 92(TM) system (copyright 1992, Gaussian, Inc.),
 the Gaussian 90(TM) system (copyright 1990, Gaussian, Inc.),
 the Gaussian 88(TM) system (copyright 1988, Gaussian, Inc.),
 the Gaussian 86(TM) system (copyright 1986, Carnegie Mellon
 University), and the Gaussian 82(TM) system (copyright 1983,
 Carnegie Mellon University). Gaussian is a federally registered
 trademark of Gaussian, Inc.
  
 This software contains proprietary and confidential information,
 including trade secrets, belonging to Gaussian, Inc.
  
 This software is provided under written license and may be
 used, copied, transmitted, or stored only in accord with that
 written license.
  
 The following legend is applicable only to US Government
 contracts under FAR:
  
                    RESTRICTED RIGHTS LEGEND
  
 Use, reproduction and disclosure by the US Government is
 subject to restrictions as set forth in subparagraphs (a)
 and (c) of the Commercial Computer Software - Restricted
 Rights clause in FAR 52.227-19.
  
 Gaussian, Inc.
 340 Quinnipiac St., Bldg. 40, Wallingford CT 06492
  
  
 ---------------------------------------------------------------
 Warning -- This program may not be used in any manner that
 competes with the business of Gaussian, Inc. or will provide
 assistance to any competitor of Gaussian, Inc.  The licensee
 of this program is prohibited from giving any competitor of
 Gaussian, Inc. access to this program.  By using this program,
 the user acknowledges that Gaussian, Inc. is engaged in the
 business of creating and licensing software in the field of
 computational chemistry and represents and warrants to the
 licensee that it is not a competitor of Gaussian, Inc. and that
 it will not use this program in any manner prohibited above.
 ---------------------------------------------------------------
  

 Cite this work as:
 Gaussian 16, Revision A.03,
 M. J. Frisch, G. W. Trucks, H. B. Schlegel, G. E. Scuseria, 
 M. A. Robb, J. R. Cheeseman, G. Scalmani, V. Barone, 
 G. A. Petersson, H. Nakatsuji, X. Li, M. Caricato, A. V. Marenich, 
 J. Bloino, B. G. Janesko, R. Gomperts, B. Mennucci, H. P. Hratchian, 
 J. V. Ortiz, A. F. Izmaylov, J. L. Sonnenberg, D. Williams-Young, 
 F. Ding, F. Lipparini, F. Egidi, J. Goings, B. Peng, A. Petrone, 
 T. Henderson, D. Ranasinghe, V. G. Zakrzewski, J. Gao, N. Rega, 
 G. Zheng, W. Liang, M. Hada, M. Ehara, K. Toyota, R. Fukuda, 
 J. Hasegawa, M. Ishida, T. Nakajima, Y. Honda, O. Kitao, H. Nakai, 
 T. Vreven, K. Throssell, J. A. Montgomery, Jr., J. E. Peralta, 
 F. Ogliaro, M. J. Bearpark, J. J. Heyd, E. N. Brothers, K. N. Kudin, 
 V. N. Staroverov, T. A. Keith, R. Kobayashi, J. Normand, 
 K. Raghavachari, A. P. Rendell, J. C. Burant, S. S. Iyengar, 
 J. Tomasi, M. Cossi, J. M. Millam, M. Klene, C. Adamo, R. Cammi, 
 J. W. Ochterski, R. L. Martin, K. Morokuma, O. Farkas, 
 J. B. Foresman, and D. J. Fox, Gaussian, Inc., Wallingford CT, 2016.
 
 ******************************************
 Gaussian 16:  AM64L-G16RevA.03 25-Dec-2016
                10-Jul-2024 
 ******************************************
 %nproc=12
 Will use up to   12 processors via shared memory.
 %mem=20GB
 %chk=e-ent.chk
 ----------------------------------------------------------------------
 #p opt freq b3lyp/gen pseudo=read EmpiricalDispersion=GD3BJ pop=(orbit
 als=20) optcyc=300 nosymm scrf=(pcm,solvent=acetonitrile)
 ----------------------------------------------------------------------
 1/6=300,18=20,19=15,26=3,38=1/1,3;
 2/9=110,12=2,15=1,17=6,18=5,40=1/2;
 3/5=7,11=2,16=1,17=8,25=1,30=1,70=2201,71=1,72=2,74=-5,124=41/1,2,3;
 4//1;
 5/5=2,38=5,53=2/2;
 6/7=2,8=2,9=2,10=2,28=1,96=20/1;
 7/30=1/1,2,3,16;
 1/6=300,18=20,19=15,26=3/3(2);
 2/9=110,15=1/2;
 99//99;
 2/9=110,15=1/2;
 3/5=7,6=1,11=2,16=1,17=8,25=1,30=1,70=2205,71=1,72=2,74=-5,82=7,124=41/1,2,3;
 4/5=5,16=3,69=1/1;
 5/5=2,38=5,53=2/2;
 7/30=1/1,2,3,16;
 1/6=300,18=20,19=15,26=3/3(-5);
 2/9=110,15=1/2;
 6/7=2,8=2,9=2,10=2,19=2,28=1,96=20/1;
 99/9=1/99;
 Leave Link    1 at Wed Jul 10 11:37:21 2024, MaxMem=  2684354560 cpu:               3.2 elap:               0.3
 (Enter /mnt/data/applications/G16/g16/l101.exe)
 -------------------
 Title Card Required
 -------------------
 Symbolic Z-matrix:
 Charge =  0 Multiplicity = 1
 C                    -6.87729   3.5121    2.77972 
 H                    -6.10533   2.90106   2.36065 
 H                    -7.09515   2.80709   3.55458 
 C                    -6.48832   4.40004   3.98349 
 H                    -5.5337    4.85575   3.82243 
 H                    -6.44675   3.7604    4.84023 
 C                    -7.49251   5.5448    4.20497 
 H                    -7.3048    5.97501   5.16653 
 H                    -7.35351   6.28249   3.44248 
 C                    -9.29091   4.01865   3.04219 
 N                    -8.27181   3.14835   2.42646 
 H                    -8.41317   2.22158   2.77454 
 O                    -10.49155   3.89244   2.68715 
 C                    -8.93897   5.07626   4.09465 
 C                    -9.90327   5.62331   4.87415 
 C                    -10.86801   6.16984   5.65322 
 H                    -11.42406   7.01424   5.30284 
 C                    -12.64792   5.79748   7.39031 
 H                    -13.26159   5.31546   6.6582 
 H                    -12.85946   6.84632   7.39835 
 C                    -11.16411   5.57572   7.04281 
 H                    -10.37891   6.06217   7.58293 
 H                    -11.1241   4.52241   7.22672 
 C                    -12.94404   5.2034    8.77991 
 H                    -12.25338   5.60261   9.49303 
 H                    -12.84204   4.13896   8.74185 
 C                    -14.38098   5.56678   9.19795 
 C                    -15.42775   4.68216   8.93858 
 C                    -14.63561   6.78072   9.83664 
 C                    -16.72944   5.01146   9.31758 
 H                    -15.22709   3.7252    8.43548 
 C                    -15.93703   7.11022   10.21516 
 H                    -13.81002   7.47782   10.04138 
 C                    -16.9843   6.22543   9.9552 
 H                    -17.55459   4.31417   9.11227 
 H                    -16.13821   8.0673    10.71796 
 H                    -18.01038   6.48533   10.25341 
 
 ITRead=  0  0  0  0  0  0  0  0  0  0  0  0  0  0  0  0  0  0  0  0
 ITRead=  0  0  0  0  0  0  0  0  0  0  0  0  0  0  0  0  0
 MicOpt= -1 -1 -1 -1 -1 -1 -1 -1 -1 -1 -1 -1 -1 -1 -1 -1 -1 -1 -1 -1
 MicOpt= -1 -1 -1 -1 -1 -1 -1 -1 -1 -1 -1 -1 -1 -1 -1 -1 -1
 NAtoms=     37 NQM=       37 NQMF=       0 NMMI=      0 NMMIF=      0
                NMic=       0 NMicF=      0.
                    Isotopes and Nuclear Properties:
 (Nuclear quadrupole moments (NQMom) in fm**2, nuclear magnetic moments (NMagM)
  in nuclear magnetons)

  Atom         1           2           3           4           5           6           7           8           9          10
 IAtWgt=          12           1           1          12           1           1          12           1           1          12
 AtmWgt=  12.0000000   1.0078250   1.0078250  12.0000000   1.0078250   1.0078250  12.0000000   1.0078250   1.0078250  12.0000000
 NucSpn=           0           1           1           0           1           1           0           1           1           0
 AtZEff=  -0.0000000  -0.0000000  -0.0000000  -0.0000000  -0.0000000  -0.0000000  -0.0000000  -0.0000000  -0.0000000  -0.0000000
 NQMom=    0.0000000   0.0000000   0.0000000   0.0000000   0.0000000   0.0000000   0.0000000   0.0000000   0.0000000   0.0000000
 NMagM=    0.0000000   2.7928460   2.7928460   0.0000000   2.7928460   2.7928460   0.0000000   2.7928460   2.7928460   0.0000000
 AtZNuc=   6.0000000   1.0000000   1.0000000   6.0000000   1.0000000   1.0000000   6.0000000   1.0000000   1.0000000   6.0000000

  Atom        11          12          13          14          15          16          17          18          19          20
 IAtWgt=          14           1          16          12          12          12           1          12           1           1
 AtmWgt=  14.0030740   1.0078250  15.9949146  12.0000000  12.0000000  12.0000000   1.0078250  12.0000000   1.0078250   1.0078250
 NucSpn=           2           1           0           0           0           0           1           0           1           1
 AtZEff=  -0.0000000  -0.0000000  -0.0000000  -0.0000000  -0.0000000  -0.0000000  -0.0000000  -0.0000000  -0.0000000  -0.0000000
 NQMom=    2.0440000   0.0000000   0.0000000   0.0000000   0.0000000   0.0000000   0.0000000   0.0000000   0.0000000   0.0000000
 NMagM=    0.4037610   2.7928460   0.0000000   0.0000000   0.0000000   0.0000000   2.7928460   0.0000000   2.7928460   2.7928460
 AtZNuc=   7.0000000   1.0000000   8.0000000   6.0000000   6.0000000   6.0000000   1.0000000   6.0000000   1.0000000   1.0000000

  Atom        21          22          23          24          25          26          27          28          29          30
 IAtWgt=          12           1           1          12           1           1          12          12          12          12
 AtmWgt=  12.0000000   1.0078250   1.0078250  12.0000000   1.0078250   1.0078250  12.0000000  12.0000000  12.0000000  12.0000000
 NucSpn=           0           1           1           0           1           1           0           0           0           0
 AtZEff=  -0.0000000  -0.0000000  -0.0000000  -0.0000000  -0.0000000  -0.0000000  -0.0000000  -0.0000000  -0.0000000  -0.0000000
 NQMom=    0.0000000   0.0000000   0.0000000   0.0000000   0.0000000   0.0000000   0.0000000   0.0000000   0.0000000   0.0000000
 NMagM=    0.0000000   2.7928460   2.7928460   0.0000000   2.7928460   2.7928460   0.0000000   0.0000000   0.0000000   0.0000000
 AtZNuc=   6.0000000   1.0000000   1.0000000   6.0000000   1.0000000   1.0000000   6.0000000   6.0000000   6.0000000   6.0000000

  Atom        31          32          33          34          35          36          37
 IAtWgt=           1          12           1          12           1           1           1
 AtmWgt=   1.0078250  12.0000000   1.0078250  12.0000000   1.0078250   1.0078250   1.0078250
 NucSpn=           1           0           1           0           1           1           1
 AtZEff=  -0.0000000  -0.0000000  -0.0000000  -0.0000000  -0.0000000  -0.0000000  -0.0000000
 NQMom=    0.0000000   0.0000000   0.0000000   0.0000000   0.0000000   0.0000000   0.0000000
 NMagM=    2.7928460   0.0000000   2.7928460   0.0000000   2.7928460   2.7928460   2.7928460
 AtZNuc=   1.0000000   6.0000000   1.0000000   6.0000000   1.0000000   1.0000000   1.0000000
 Leave Link  101 at Wed Jul 10 11:37:22 2024, MaxMem=  2684354560 cpu:               5.5 elap:               0.5
 (Enter /mnt/data/applications/G16/g16/l103.exe)

 GradGradGradGradGradGradGradGradGradGradGradGradGradGradGradGradGradGrad
 Berny optimization.
 Initialization pass.
                           ----------------------------
                           !    Initial Parameters    !
                           ! (Angstroms and Degrees)  !
 --------------------------                            --------------------------
 ! Name  Definition              Value          Derivative Info.                !
 --------------------------------------------------------------------------------
 ! R1    R(1,2)                  1.07           estimate D2E/DX2                !
 ! R2    R(1,3)                  1.07           estimate D2E/DX2                !
 ! R3    R(1,4)                  1.5456         estimate D2E/DX2                !
 ! R4    R(1,11)                 1.4838         estimate D2E/DX2                !
 ! R5    R(4,5)                  1.07           estimate D2E/DX2                !
 ! R6    R(4,6)                  1.07           estimate D2E/DX2                !
 ! R7    R(4,7)                  1.5388         estimate D2E/DX2                !
 ! R8    R(7,8)                  1.07           estimate D2E/DX2                !
 ! R9    R(7,9)                  1.07           estimate D2E/DX2                !
 ! R10   R(7,14)                 1.5245         estimate D2E/DX2                !
 ! R11   R(10,11)                1.4748         estimate D2E/DX2                !
 ! R12   R(10,13)                1.2584         estimate D2E/DX2                !
 ! R13   R(10,14)                1.533          estimate D2E/DX2                !
 ! R14   R(11,12)                1.0            estimate D2E/DX2                !
 ! R15   R(14,15)                1.3553         estimate D2E/DX2                !
 ! R16   R(15,16)                1.3551         estimate D2E/DX2                !
 ! R17   R(16,17)                1.07           estimate D2E/DX2                !
 ! R18   R(16,21)                1.54           estimate D2E/DX2                !
 ! R19   R(18,19)                1.07           estimate D2E/DX2                !
 ! R20   R(18,20)                1.07           estimate D2E/DX2                !
 ! R21   R(18,21)                1.54           estimate D2E/DX2                !
 ! R22   R(18,24)                1.54           estimate D2E/DX2                !
 ! R23   R(21,22)                1.07           estimate D2E/DX2                !
 ! R24   R(21,23)                1.07           estimate D2E/DX2                !
 ! R25   R(24,25)                1.07           estimate D2E/DX2                !
 ! R26   R(24,26)                1.07           estimate D2E/DX2                !
 ! R27   R(24,27)                1.54           estimate D2E/DX2                !
 ! R28   R(27,28)                1.3948         estimate D2E/DX2                !
 ! R29   R(27,29)                1.3951         estimate D2E/DX2                !
 ! R30   R(28,30)                1.3952         estimate D2E/DX2                !
 ! R31   R(28,31)                1.0996         estimate D2E/DX2                !
 ! R32   R(29,32)                1.3948         estimate D2E/DX2                !
 ! R33   R(29,33)                1.0998         estimate D2E/DX2                !
 ! R34   R(30,34)                1.3947         estimate D2E/DX2                !
 ! R35   R(30,35)                1.0997         estimate D2E/DX2                !
 ! R36   R(32,34)                1.3954         estimate D2E/DX2                !
 ! R37   R(32,36)                1.0997         estimate D2E/DX2                !
 ! R38   R(34,37)                1.0997         estimate D2E/DX2                !
 ! A1    A(2,1,3)               93.1095         estimate D2E/DX2                !
 ! A2    A(2,1,4)              116.8434         estimate D2E/DX2                !
 ! A3    A(2,1,11)             116.4098         estimate D2E/DX2                !
 ! A4    A(3,1,4)               82.2855         estimate D2E/DX2                !
 ! A5    A(3,1,11)              79.6031         estimate D2E/DX2                !
 ! A6    A(4,1,11)             124.2479         estimate D2E/DX2                !
 ! A7    A(1,4,5)              110.6084         estimate D2E/DX2                !
 ! A8    A(1,4,6)              106.8562         estimate D2E/DX2                !
 ! A9    A(1,4,7)              112.0405         estimate D2E/DX2                !
 ! A10   A(5,4,6)              109.9051         estimate D2E/DX2                !
 ! A11   A(5,4,7)              106.6801         estimate D2E/DX2                !
 ! A12   A(6,4,7)              110.7825         estimate D2E/DX2                !
 ! A13   A(4,7,8)              108.2987         estimate D2E/DX2                !
 ! A14   A(4,7,9)              108.9984         estimate D2E/DX2                !
 ! A15   A(4,7,14)             112.3415         estimate D2E/DX2                !
 ! A16   A(8,7,9)              109.9016         estimate D2E/DX2                !
 ! A17   A(8,7,14)             110.7971         estimate D2E/DX2                !
 ! A18   A(9,7,14)             106.4744         estimate D2E/DX2                !
 ! A19   A(11,10,13)           118.8363         estimate D2E/DX2                !
 ! A20   A(11,10,14)           122.3505         estimate D2E/DX2                !
 ! A21   A(13,10,14)           118.8126         estimate D2E/DX2                !
 ! A22   A(1,11,10)            113.9131         estimate D2E/DX2                !
 ! A23   A(1,11,12)            106.091          estimate D2E/DX2                !
 ! A24   A(10,11,12)           107.6911         estimate D2E/DX2                !
 ! A25   A(7,14,10)            118.6566         estimate D2E/DX2                !
 ! A26   A(7,14,15)            120.6264         estimate D2E/DX2                !
 ! A27   A(10,14,15)           120.6631         estimate D2E/DX2                !
 ! A28   A(15,16,17)           119.9979         estimate D2E/DX2                !
 ! A29   A(15,16,21)           120.0027         estimate D2E/DX2                !
 ! A30   A(17,16,21)           119.9995         estimate D2E/DX2                !
 ! A31   A(19,18,20)           109.4709         estimate D2E/DX2                !
 ! A32   A(19,18,21)           109.4708         estimate D2E/DX2                !
 ! A33   A(19,18,24)           109.4711         estimate D2E/DX2                !
 ! A34   A(20,18,21)           109.4713         estimate D2E/DX2                !
 ! A35   A(20,18,24)           109.472          estimate D2E/DX2                !
 ! A36   A(21,18,24)           109.4712         estimate D2E/DX2                !
 ! A37   A(16,21,18)           109.47           estimate D2E/DX2                !
 ! A38   A(16,21,22)            97.9897         estimate D2E/DX2                !
 ! A39   A(16,21,23)           121.8489         estimate D2E/DX2                !
 ! A40   A(18,21,22)           121.8489         estimate D2E/DX2                !
 ! A41   A(18,21,23)            97.9897         estimate D2E/DX2                !
 ! A42   A(22,21,23)           109.4712         estimate D2E/DX2                !
 ! A43   A(18,24,25)           109.4712         estimate D2E/DX2                !
 ! A44   A(18,24,26)           109.4712         estimate D2E/DX2                !
 ! A45   A(18,24,27)           109.4712         estimate D2E/DX2                !
 ! A46   A(25,24,26)           109.4712         estimate D2E/DX2                !
 ! A47   A(25,24,27)           109.4713         estimate D2E/DX2                !
 ! A48   A(26,24,27)           109.4712         estimate D2E/DX2                !
 ! A49   A(24,27,28)           120.008          estimate D2E/DX2                !
 ! A50   A(24,27,29)           119.992          estimate D2E/DX2                !
 ! A51   A(28,27,29)           120.0            estimate D2E/DX2                !
 ! A52   A(27,28,30)           119.9985         estimate D2E/DX2                !
 ! A53   A(27,28,31)           120.0043         estimate D2E/DX2                !
 ! A54   A(30,28,31)           119.9972         estimate D2E/DX2                !
 ! A55   A(27,29,32)           120.0047         estimate D2E/DX2                !
 ! A56   A(27,29,33)           119.984          estimate D2E/DX2                !
 ! A57   A(32,29,33)           120.0113         estimate D2E/DX2                !
 ! A58   A(28,30,34)           120.0086         estimate D2E/DX2                !
 ! A59   A(28,30,35)           119.9808         estimate D2E/DX2                !
 ! A60   A(34,30,35)           120.0106         estimate D2E/DX2                !
 ! A61   A(29,32,34)           119.994          estimate D2E/DX2                !
 ! A62   A(29,32,36)           120.0249         estimate D2E/DX2                !
 ! A63   A(34,32,36)           119.9811         estimate D2E/DX2                !
 ! A64   A(30,34,32)           119.9942         estimate D2E/DX2                !
 ! A65   A(30,34,37)           120.0128         estimate D2E/DX2                !
 ! A66   A(32,34,37)           119.993          estimate D2E/DX2                !
 ! A67   L(14,15,16,13,-1)     179.9673         estimate D2E/DX2                !
 ! A68   L(14,15,16,13,-2)     179.9939         estimate D2E/DX2                !
 ! D1    D(2,1,4,5)             42.2366         estimate D2E/DX2                !
 ! D2    D(2,1,4,6)            -77.3676         estimate D2E/DX2                !
 ! D3    D(2,1,4,7)            161.1226         estimate D2E/DX2                !
 ! D4    D(3,1,4,5)            131.8238         estimate D2E/DX2                !
 ! D5    D(3,1,4,6)             12.2196         estimate D2E/DX2                !
 ! D6    D(3,1,4,7)           -109.2902         estimate D2E/DX2                !
 ! D7    D(11,1,4,5)          -156.3886         estimate D2E/DX2                !
 ! D8    D(11,1,4,6)            84.0072         estimate D2E/DX2                !
 ! D9    D(11,1,4,7)           -37.5027         estimate D2E/DX2                !
 ! D10   D(2,1,11,10)          179.514          estimate D2E/DX2                !
 ! D11   D(2,1,11,12)           61.2274         estimate D2E/DX2                !
 ! D12   D(3,1,11,10)           91.2068         estimate D2E/DX2                !
 ! D13   D(3,1,11,12)          -27.0798         estimate D2E/DX2                !
 ! D14   D(4,1,11,10)           18.0661         estimate D2E/DX2                !
 ! D15   D(4,1,11,12)         -100.2205         estimate D2E/DX2                !
 ! D16   D(1,4,7,8)            166.9239         estimate D2E/DX2                !
 ! D17   D(1,4,7,9)            -73.535          estimate D2E/DX2                !
 ! D18   D(1,4,7,14)            44.2246         estimate D2E/DX2                !
 ! D19   D(5,4,7,8)            -71.897          estimate D2E/DX2                !
 ! D20   D(5,4,7,9)             47.6442         estimate D2E/DX2                !
 ! D21   D(5,4,7,14)           165.4038         estimate D2E/DX2                !
 ! D22   D(6,4,7,8)             47.6982         estimate D2E/DX2                !
 ! D23   D(6,4,7,9)            167.2394         estimate D2E/DX2                !
 ! D24   D(6,4,7,14)           -75.001          estimate D2E/DX2                !
 ! D25   D(4,7,14,10)          -37.4293         estimate D2E/DX2                !
 ! D26   D(4,7,14,15)          145.2219         estimate D2E/DX2                !
 ! D27   D(8,7,14,10)         -158.7081         estimate D2E/DX2                !
 ! D28   D(8,7,14,15)           23.9431         estimate D2E/DX2                !
 ! D29   D(9,7,14,10)           81.8171         estimate D2E/DX2                !
 ! D30   D(9,7,14,15)          -95.5317         estimate D2E/DX2                !
 ! D31   D(13,10,11,1)         171.9588         estimate D2E/DX2                !
 ! D32   D(13,10,11,12)        -70.6751         estimate D2E/DX2                !
 ! D33   D(14,10,11,1)          -7.7462         estimate D2E/DX2                !
 ! D34   D(14,10,11,12)        109.6199         estimate D2E/DX2                !
 ! D35   D(11,10,14,7)          19.0589         estimate D2E/DX2                !
 ! D36   D(11,10,14,15)       -163.5932         estimate D2E/DX2                !
 ! D37   D(13,10,14,7)        -160.6461         estimate D2E/DX2                !
 ! D38   D(13,10,14,15)         16.7017         estimate D2E/DX2                !
 ! D39   D(7,14,16,17)          91.4926         estimate D2E/DX2                !
 ! D40   D(7,14,16,21)         -88.5263         estimate D2E/DX2                !
 ! D41   D(10,14,16,17)        -85.8028         estimate D2E/DX2                !
 ! D42   D(10,14,16,21)         94.1783         estimate D2E/DX2                !
 ! D43   D(15,16,21,18)       -149.997          estimate D2E/DX2                !
 ! D44   D(15,16,21,22)         82.0662         estimate D2E/DX2                !
 ! D45   D(15,16,21,23)        -36.845          estimate D2E/DX2                !
 ! D46   D(17,16,21,18)         30.0033         estimate D2E/DX2                !
 ! D47   D(17,16,21,22)        -97.9336         estimate D2E/DX2                !
 ! D48   D(17,16,21,23)        143.1552         estimate D2E/DX2                !
 ! D49   D(19,18,21,16)         60.002          estimate D2E/DX2                !
 ! D50   D(19,18,21,22)        173.154          estimate D2E/DX2                !
 ! D51   D(19,18,21,23)        -67.9349         estimate D2E/DX2                !
 ! D52   D(20,18,21,16)        -59.9974         estimate D2E/DX2                !
 ! D53   D(20,18,21,22)         53.1546         estimate D2E/DX2                !
 ! D54   D(20,18,21,23)        172.0657         estimate D2E/DX2                !
 ! D55   D(24,18,21,16)       -179.9984         estimate D2E/DX2                !
 ! D56   D(24,18,21,22)        -66.8464         estimate D2E/DX2                !
 ! D57   D(24,18,21,23)         52.0647         estimate D2E/DX2                !
 ! D58   D(19,18,24,25)        173.4845         estimate D2E/DX2                !
 ! D59   D(19,18,24,26)         53.4845         estimate D2E/DX2                !
 ! D60   D(19,18,24,27)        -66.5155         estimate D2E/DX2                !
 ! D61   D(20,18,24,25)        -66.5155         estimate D2E/DX2                !
 ! D62   D(20,18,24,26)        173.4845         estimate D2E/DX2                !
 ! D63   D(20,18,24,27)         53.4845         estimate D2E/DX2                !
 ! D64   D(21,18,24,25)         53.4851         estimate D2E/DX2                !
 ! D65   D(21,18,24,26)        -66.5149         estimate D2E/DX2                !
 ! D66   D(21,18,24,27)        173.4851         estimate D2E/DX2                !
 ! D67   D(18,24,27,28)         93.8248         estimate D2E/DX2                !
 ! D68   D(18,24,27,29)        -86.2009         estimate D2E/DX2                !
 ! D69   D(25,24,27,28)       -146.1752         estimate D2E/DX2                !
 ! D70   D(25,24,27,29)         33.7991         estimate D2E/DX2                !
 ! D71   D(26,24,27,28)        -26.1752         estimate D2E/DX2                !
 ! D72   D(26,24,27,29)        153.7991         estimate D2E/DX2                !
 ! D73   D(24,27,28,30)        179.9892         estimate D2E/DX2                !
 ! D74   D(24,27,28,31)         -0.0056         estimate D2E/DX2                !
 ! D75   D(29,27,28,30)          0.0149         estimate D2E/DX2                !
 ! D76   D(29,27,28,31)       -179.9798         estimate D2E/DX2                !
 ! D77   D(24,27,29,32)        179.9881         estimate D2E/DX2                !
 ! D78   D(24,27,29,33)          0.0007         estimate D2E/DX2                !
 ! D79   D(28,27,29,32)         -0.0376         estimate D2E/DX2                !
 ! D80   D(28,27,29,33)        179.975          estimate D2E/DX2                !
 ! D81   D(27,28,30,34)          0.0323         estimate D2E/DX2                !
 ! D82   D(27,28,30,35)        179.9532         estimate D2E/DX2                !
 ! D83   D(31,28,30,34)       -179.9729         estimate D2E/DX2                !
 ! D84   D(31,28,30,35)         -0.052          estimate D2E/DX2                !
 ! D85   D(27,29,32,34)          0.0131         estimate D2E/DX2                !
 ! D86   D(27,29,32,36)       -179.9563         estimate D2E/DX2                !
 ! D87   D(33,29,32,34)       -179.9995         estimate D2E/DX2                !
 ! D88   D(33,29,32,36)          0.0311         estimate D2E/DX2                !
 ! D89   D(28,30,34,32)         -0.0568         estimate D2E/DX2                !
 ! D90   D(28,30,34,37)        179.9619         estimate D2E/DX2                !
 ! D91   D(35,30,34,32)       -179.9777         estimate D2E/DX2                !
 ! D92   D(35,30,34,37)          0.041          estimate D2E/DX2                !
 ! D93   D(29,32,34,30)          0.0341         estimate D2E/DX2                !
 ! D94   D(29,32,34,37)       -179.9846         estimate D2E/DX2                !
 ! D95   D(36,32,34,30)       -179.9964         estimate D2E/DX2                !
 ! D96   D(36,32,34,37)         -0.0151         estimate D2E/DX2                !
 --------------------------------------------------------------------------------
 Trust Radius=3.00D-01 FncErr=1.00D-07 GrdErr=1.00D-06 EigMax=2.50D+02 EigMin=1.00D-04
 Number of steps in this run=    222 maximum allowed number of steps=    222.
 GradGradGradGradGradGradGradGradGradGradGradGradGradGradGradGradGradGrad

 Leave Link  103 at Wed Jul 10 11:37:22 2024, MaxMem=  2684354560 cpu:               0.2 elap:               0.1
 (Enter /mnt/data/applications/G16/g16/l202.exe)
                          Input orientation:                          
 ---------------------------------------------------------------------
 Center     Atomic      Atomic             Coordinates (Angstroms)
 Number     Number       Type             X           Y           Z
 ---------------------------------------------------------------------
      1          6           0       -6.877288    3.512098    2.779722
      2          1           0       -6.105335    2.901057    2.360651
      3          1           0       -7.095145    2.807090    3.554575
      4          6           0       -6.488317    4.400037    3.983485
      5          1           0       -5.533697    4.855754    3.822426
      6          1           0       -6.446746    3.760403    4.840233
      7          6           0       -7.492507    5.544804    4.204972
      8          1           0       -7.304799    5.975011    5.166528
      9          1           0       -7.353509    6.282487    3.442483
     10          6           0       -9.290914    4.018649    3.042194
     11          7           0       -8.271811    3.148348    2.426461
     12          1           0       -8.413170    2.221579    2.774537
     13          8           0      -10.491549    3.892435    2.687146
     14          6           0       -8.938968    5.076263    4.094652
     15          6           0       -9.903268    5.623307    4.874146
     16          6           0      -10.868013    6.169843    5.653218
     17          1           0      -11.424062    7.014238    5.302839
     18          6           0      -12.647919    5.797478    7.390313
     19          1           0      -13.261589    5.315456    6.658199
     20          1           0      -12.859463    6.846325    7.398347
     21          6           0      -11.164111    5.575721    7.042810
     22          1           0      -10.378913    6.062172    7.582929
     23          1           0      -11.124100    4.522406    7.226725
     24          6           0      -12.944038    5.203403    8.779914
     25          1           0      -12.253382    5.602609    9.493026
     26          1           0      -12.842043    4.138955    8.741851
     27          6           0      -14.380982    5.566779    9.197947
     28          6           0      -15.427753    4.682163    8.938576
     29          6           0      -14.635609    6.780717    9.836639
     30          6           0      -16.729439    5.011465    9.317582
     31          1           0      -15.227093    3.725204    8.435478
     32          6           0      -15.937028    7.110217   10.215156
     33          1           0      -13.810016    7.477820   10.041379
     34          6           0      -16.984305    6.225427    9.955203
     35          1           0      -17.554589    4.314174    9.112266
     36          1           0      -16.138215    8.067299   10.717963
     37          1           0      -18.010376    6.485332   10.253406
 ---------------------------------------------------------------------
                    Distance matrix (angstroms):
                    1          2          3          4          5
     1  C    0.000000
     2  H    1.070002   0.000000
     3  H    1.069998   1.553709   0.000000
     4  C    1.545568   2.242143   1.757750   0.000000
     5  H    2.167459   2.506870   2.589766   1.070008   0.000000
     6  H    2.119606   2.646388   1.726889   1.069989   1.751966
     7  C    2.557681   3.509298   2.841830   1.538814   2.111415
     8  H    3.456234   4.331380   3.560628   2.132318   2.489207
     9  H    2.888095   3.763292   3.486789   2.141228   2.343424
    10  C    2.480136   3.444043   2.559650   2.980946   3.927618
    11  N    1.483847   2.181537   1.665425   2.678041   3.515853
    12  H    2.006090   2.441126   1.639656   3.148380   4.040830
    13  O    3.635397   4.508692   3.669600   4.238399   5.176595
    14  C    2.902788   3.970864   2.973300   2.544667   3.423244
    15  C    4.242685   5.305903   4.190215   3.735179   4.559430
    16  C    5.589855   6.648990   5.472380   5.010186   5.790817
    17  H    6.269311   7.339182   6.284588   5.739018   6.445703
    18  C    7.731798   8.745980   7.381640   7.176352   8.014289
    19  H    7.684659   8.689661   7.345026   7.339571   8.244589
    20  H    8.260460   9.303858   8.019811   7.631325   8.391450
    21  C    6.388217   7.393758   6.032378   5.710058   6.526162
    22  H    6.468002   7.451732   6.132399   5.554766   6.250836
    23  H    6.231530   7.176033   5.714846   5.658981   6.553852
    24  C    8.698751   9.657929   8.200977   8.082541   8.922483
    25  H    8.851049   9.796307   8.347905   8.064564   8.824266
    26  H    8.456846   9.361376   7.855478   7.942295   8.838918
    27  C   10.085670  11.060788   9.620132   9.531320  10.376716
    28  C   10.602405  11.547681  10.096322  10.224776  11.139905
    29  C   10.985240  11.987816  10.588325  10.310452  11.077953
    30  C   11.918750  12.873395  11.440766  11.563175  12.472595
    31  H   10.087232  10.990415   9.528626   9.830659  10.794458
    32  C   12.260140  13.269231  11.876832  11.638598  12.416880
    33  H   10.794505  11.802646  10.439532   9.988900  10.679329
    34  C   12.688636  13.677743  12.265747  12.213077  13.061523
    35  H   12.439824  13.366624  11.939816  12.197302  13.144488
    36  H   13.020380  14.042557  12.679157  12.325686  13.050603
    37  H   13.734690  14.726595  13.324641  13.282252  14.130837
                    6          7          8          9         10
     6  H    0.000000
     7  C    2.163622   0.000000
     8  H    2.397334   1.070000   0.000000
     9  H    3.022719   1.069993   1.751926   0.000000
    10  C    3.374749   2.629728   3.504968   3.006449   0.000000
    11  N    3.087357   3.084383   4.053776   3.420293   1.474829
    12  H    3.240664   3.733308   4.586759   4.249706   2.017804
    13  O    4.584065   3.745446   4.543108   4.016239   1.258377
    14  C    2.915227   1.524450   2.151086   2.096182   1.532998
    15  C    3.926717   2.503143   2.638413   2.997574   2.511166
    16  C    5.100387   3.725873   3.601572   4.153526   3.732603
    17  H    5.964488   4.338395   4.250518   4.534953   4.316757
    18  C    7.007648   6.065354   5.790136   6.622038   5.774068
    19  H    7.222553   6.273215   6.176037   6.795689   5.524804
    20  H    7.562394   6.379327   6.049339   6.803111   6.301299
    21  C    5.513643   4.640577   4.309774   5.289855   4.683831
    22  H    5.318125   4.473209   3.911108   5.132729   5.096862
    23  H    5.306000   4.833710   4.576192   5.624565   4.596155
    24  C    7.734219   7.125014   6.741880   7.804269   6.904374
    25  H    7.665456   7.115671   6.583748   7.815374   7.273127
    26  H    7.501050   7.153825   6.842157   7.924774   6.716479
    27  C    9.230642   8.507723   8.154223   9.111695   8.136264
    28  C    9.914865   9.280047   9.048878   9.897551   8.536297
    29  C   10.057030   9.179708   8.729254   9.703734   9.075201
    30  C   11.284750  10.570910  10.343283  11.137341   9.782527
    31  H    9.487967   9.001774   8.860610   9.667628   8.025699
    32  C   11.409492  10.482498  10.064428  10.964992  10.255731
    33  H    9.751351   8.815390   8.266829   9.309175   9.020906
    34  C   11.969938  11.118571  10.802173  11.626307  10.575813
    35  H   11.913904  11.262392  11.107899  11.835656  10.257750
    36  H   12.125247  11.114417  10.640739  11.545095  11.054163
    37  H   13.055467  12.169375  11.863647  12.649057  11.580808
                   11         12         13         14         15
    11  N    0.000000
    12  H    1.000020   0.000000
    13  O    2.355601   2.668156   0.000000
    14  C    2.635302   3.188791   2.406871   0.000000
    15  C    3.844247   4.266205   2.850431   1.355265   0.000000
    16  C    5.126564   5.468258   3.758443   2.710399   1.355134
    17  H    5.758068   6.198981   4.178168   3.375079   2.105061
    18  C    7.127976   7.212874   5.513520   5.013767   3.727539
    19  H    6.892158   6.939890   5.046520   5.031306   3.815224
    20  H    7.709814   7.908061   6.043831   5.423819   4.075102
    21  C    5.963910   6.085730   4.717796   3.727245   2.509003
    22  H    6.286446   6.460258   5.356224   3.900453   2.785022
    23  H    5.750315   5.697800   4.626528   3.858943   2.870025
    24  C    8.149805   8.092255   6.697399   6.165098   4.967658
    25  H    8.474234   8.444921   7.235243   6.356479   5.182424
    26  H    7.858275   7.674640   6.499619   6.140766   5.079256
    27  C    9.435242   9.384313   7.766701   7.476613   6.224819
    28  C    9.796313   9.656823   8.004384   8.106988   6.922809
    29  C   10.421265  10.458383   8.753893   8.266033   6.954206
    30  C   11.067530  10.943274   9.172032   9.379480   8.167930
    31  H    9.209614   8.985360   7.449608   7.759424   6.680494
    32  C   11.623929  11.656331   9.832512   9.516848   8.194117
    33  H   10.363543  10.467140   8.829040   8.053456   6.738115
    34  C   11.918805  11.876747  10.021147  10.019685   8.736176
    35  H   11.499092  11.318627   9.557540   9.999309   8.844106
    36  H   12.442885  12.527840  10.668099  10.229550   8.888074
    37  H   12.931982  12.892611  10.977438  11.054690   9.767534
                   16         17         18         19         20
    16  C    0.000000
    17  H    1.070027   0.000000
    18  C    2.514801   2.708483   0.000000
    19  H    2.732978   2.845938   1.070013   0.000000
    20  H    2.732943   2.545530   1.069998   1.747308   0.000000
    21  C    1.540007   2.272532   1.540007   2.148273   2.148269
    22  H    1.993639   2.682829   2.292500   3.118098   2.608083
    23  H    2.292500   3.162363   1.993639   2.349683   2.905433
    24  C    3.875579   4.204699   1.540000   2.148271   2.148272
    25  H    4.121302   4.498681   2.148263   3.022446   2.510347
    26  H    4.190580   4.701566   2.148263   2.429358   3.022442
    27  C    5.026902   5.100036   2.514809   2.786848   2.681570
    28  C    5.813605   5.889541   3.371724   3.208341   3.694863
    29  C    5.662946   5.560926   3.301845   3.759974   3.017327
    30  C    7.008974   6.948113   4.581592   4.380721   4.693281
    31  H    5.720036   5.924037   3.469701   3.090442   4.052494
    32  C    6.884076   6.671352   4.530040   4.799072   4.180366
    33  H    5.442623   5.325546   3.346964   4.052468   2.878881
    34  C    7.477914   7.292668   5.056287   5.055383   4.892580
    35  H    7.753633   7.706195   5.407469   5.045282   5.602992
    36  H    7.551623   7.256427   5.329869   5.685886   4.822949
    37  H    8.501447   8.256353   6.117710   6.070016   5.900303
                   21         22         23         24         25
    21  C    0.000000
    22  H    1.070000   0.000000
    23  H    1.070000   1.747303   0.000000
    24  C    2.514814   2.958061   2.487635   0.000000
    25  H    2.681565   2.715383   2.752860   1.070000   0.000000
    26  H    2.786843   3.332998   2.322492   1.070000   1.747303
    27  C    3.872073   4.343991   3.947621   1.540000   2.148263
    28  C    4.750897   5.406755   4.634370   2.542775   3.351308
    29  C    4.616145   4.869803   4.923649   2.542833   2.679742
    30  C    6.038696   6.666498   6.002557   3.828209   4.518331
    31  H    4.676725   5.449139   4.350996   2.741541   3.672331
    32  C    5.932891   6.238563   6.228304   3.828035   4.045195
    33  H    4.428341   4.452023   4.885785   2.741201   2.498042
    34  C    6.540551   7.020366   6.684824   4.330080   4.794074
    35  H    6.834644   7.542195   6.704463   4.707267   5.468806
    36  H    6.667564   6.857006   7.063735   4.707515   4.760997
    37  H    7.616210   8.096279   7.773974   5.429760   5.873700
                   26         27         28         29         30
    26  H    0.000000
    27  C    2.148263   0.000000
    28  C    2.649466   1.394829   0.000000
    29  C    3.375551   1.395138   2.416183   0.000000
    30  C    4.025492   2.416183   1.395160   2.789946   0.000000
    31  H    2.439983   2.165331   1.099610   3.413102   2.165553
    32  C    4.536293   2.416236   2.790065   1.394825   2.416260
    33  H    3.711301   2.165516   3.413055   1.099761   3.889707
    34  C    4.794155   2.790080   2.416205   2.416356   1.394712
    35  H    4.730327   3.412938   2.165414   3.889601   1.099655
    36  H    5.495602   3.413344   3.889745   2.165606   3.413024
    37  H    5.873835   3.889760   3.413229   3.413209   2.165375
                   31         32         33         34         35
    31  H    0.000000
    32  C    3.889675   0.000000
    33  H    4.320781   2.165528   0.000000
    34  C    3.412986   1.395427   3.413506   0.000000
    35  H    2.494427   3.413316   4.989362   2.165330   0.000000
    36  H    4.989355   1.099680   2.495147   2.165678   4.320917
    37  H    4.320860   2.165806   4.321228   1.099680   2.494768
                   36         37
    36  H    0.000000
    37  H    2.494678   0.000000
 Symmetry turned off by external request.
 Stoichiometry    C16H19NO
 Framework group  C1[X(C16H19NO)]
 Deg. of freedom   105
 Full point group                 C1      NOp   1
 Rotational constants (GHZ):           1.3061875           0.1080839           0.1037690
 Leave Link  202 at Wed Jul 10 11:37:23 2024, MaxMem=  2684354560 cpu:               0.1 elap:               0.1
 (Enter /mnt/data/applications/G16/g16/l301.exe)
 General basis read from cards:  (5D, 7F)
 Centers:       1      4      7     10     14     15     16     18     21     24
 Centers:      27     28     29     30     32     34      2      3      5      6
 Centers:       8      9     12     17     19     20     22     23     25     26
 Centers:      31     33     35     36     37     13     11
 cc-pVTZ
 ****
 ======================================================================================================
                                       Pseudopotential Parameters
 ======================================================================================================
  Center     Atomic      Valence      Angular      Power
  Number     Number     Electrons     Momentum     of R      Exponent        Coefficient   SO-Coeffient
 ======================================================================================================
    1          6
                                   No pseudopotential on this center.
    2          1
                                   No pseudopotential on this center.
    3          1
                                   No pseudopotential on this center.
    4          6
                                   No pseudopotential on this center.
    5          1
                                   No pseudopotential on this center.
    6          1
                                   No pseudopotential on this center.
    7          6
                                   No pseudopotential on this center.
    8          1
                                   No pseudopotential on this center.
    9          1
                                   No pseudopotential on this center.
   10          6
                                   No pseudopotential on this center.
   11          7
                                   No pseudopotential on this center.
   12          1
                                   No pseudopotential on this center.
   13          8
                                   No pseudopotential on this center.
   14          6
                                   No pseudopotential on this center.
   15          6
                                   No pseudopotential on this center.
   16          6
                                   No pseudopotential on this center.
   17          1
                                   No pseudopotential on this center.
   18          6
                                   No pseudopotential on this center.
   19          1
                                   No pseudopotential on this center.
   20          1
                                   No pseudopotential on this center.
   21          6
                                   No pseudopotential on this center.
   22          1
                                   No pseudopotential on this center.
   23          1
                                   No pseudopotential on this center.
   24          6
                                   No pseudopotential on this center.
   25          1
                                   No pseudopotential on this center.
   26          1
                                   No pseudopotential on this center.
   27          6
                                   No pseudopotential on this center.
   28          6
                                   No pseudopotential on this center.
   29          6
                                   No pseudopotential on this center.
   30          6
                                   No pseudopotential on this center.
   31          1
                                   No pseudopotential on this center.
   32          6
                                   No pseudopotential on this center.
   33          1
                                   No pseudopotential on this center.
   34          6
                                   No pseudopotential on this center.
   35          1
                                   No pseudopotential on this center.
   36          1
                                   No pseudopotential on this center.
   37          1
                                   No pseudopotential on this center.
 ======================================================================================================
 Ernie: Thresh=  0.10000D-02 Tol=  0.10000D-05 Strict=F.
 Ernie:  54 primitive shells out of 620 were deleted.
   806 basis functions,  1259 primitive gaussians,   915 cartesian basis functions
    65 alpha electrons       65 beta electrons
       nuclear repulsion energy      1131.2592505622 Hartrees.
 IExCor=  402 DFT=T Ex+Corr=B3LYP ExCW=0 ScaHFX=  0.200000
 ScaDFX=  0.800000  0.720000  1.000000  0.810000 ScalE2=  1.000000  1.000000
 IRadAn=      5 IRanWt=     -1 IRanGd=            0 ICorTp=0 IEmpDi=141
 NAtoms=   37 NActive=   37 NUniq=   37 SFac= 1.00D+00 NAtFMM=   60 NAOKFM=F Big=F
 Integral buffers will be    131072 words long.
 Raffenetti 2 integral format.
 Two-electron integral symmetry is turned off.
 R6Disp:  Grimme-D3(BJ) Dispersion energy=       -0.0680202021 Hartrees.
 Nuclear repulsion after empirical dispersion term =     1131.1912303601 Hartrees.
 ------------------------------------------------------------------------------
 Polarizable Continuum Model (PCM)
 =================================
 Model                : PCM.
 Atomic radii         : UFF (Universal Force Field).
 Polarization charges : Total charges.
 Charge compensation  : None.
 Solution method      : On-the-fly selection.
 Cavity type          : Scaled VdW (van der Waals Surface) (Alpha=1.100).
 Cavity algorithm     : GePol (No added spheres)
                        Default sphere list used, NSphG=   37.
                        Lebedev-Laikov grids with approx.  5.0 points / Ang**2.
                        Smoothing algorithm: York/Karplus (Gamma=1.0000).
                        Polarization charges: spherical gaussians, with
                                              point-specific exponents (IZeta= 3).
                        Self-potential: point-specific (ISelfS= 7).
                        Self-field    : sphere-specific E.n sum rule (ISelfD= 2).
 1st derivatives      : Analytical E(r).r(x)/FMM algorithm (CHGder, D1EAlg=3).
                        Cavity 1st derivative terms included.
 Solvent              : Acetonitrile, Eps=  35.688000 Eps(inf)=   1.806874
 ------------------------------------------------------------------------------
 GePol: Number of generator spheres                  =      37
 GePol: Total number of spheres                      =      37
 GePol: Number of exposed spheres                    =      37 (100.00%)
 GePol: Number of points                             =    2785
 GePol: Average weight of points                     =       0.13
 GePol: Minimum weight of points                     =   0.23D-09
 GePol: Maximum weight of points                     =    0.20577
 GePol: Number of points with low weight             =     191
 GePol: Fraction of low-weight points (<1% of avg)   =       6.86%
 GePol: Cavity surface area                          =    362.293 Ang**2
 GePol: Cavity volume                                =    375.261 Ang**3
 Leave Link  301 at Wed Jul 10 11:37:23 2024, MaxMem=  2684354560 cpu:               1.8 elap:               0.2
 (Enter /mnt/data/applications/G16/g16/l302.exe)
 NPDir=0 NMtPBC=     1 NCelOv=     1 NCel=       1 NClECP=     1 NCelD=      1
         NCelK=      1 NCelE2=     1 NClLst=     1 CellRange=     0.0.
 One-electron integrals computed using PRISM.
   1 Symmetry operations used in ECPInt.
 ECPInt:  NShTT=   43365 NPrTT=  161220 LenC2=   33091 LenP2D=   81536.
 LDataN:  DoStor=T MaxTD1= 6 Len=  172
 NBasis=   806 RedAO= T EigKep=  3.29D-05  NBF=   806
 NBsUse=   806 1.00D-06 EigRej= -1.00D+00 NBFU=   806
 Precomputing XC quadrature grid using
 IXCGrd= 4 IRadAn=           5 IRanWt=          -1 IRanGd=           0 AccXCQ= 0.00D+00.
 Generated NRdTot=       0 NPtTot=           0 NUsed=           0 NTot=          32
 NSgBfM=   891   891   891   891   891 MxSgAt=    37 MxSgA2=    37.
 Leave Link  302 at Wed Jul 10 11:37:27 2024, MaxMem=  2684354560 cpu:              42.2 elap:               3.6
 (Enter /mnt/data/applications/G16/g16/l303.exe)
 DipDrv:  MaxL=1.
 Leave Link  303 at Wed Jul 10 11:37:27 2024, MaxMem=  2684354560 cpu:               2.7 elap:               0.3
 (Enter /mnt/data/applications/G16/g16/l401.exe)
 ExpMin= 1.03D-01 ExpMax= 1.53D+04 ExpMxC= 5.22D+02 IAcc=3 IRadAn=         5 AccDes= 0.00D+00
 Harris functional with IExCor=  402 and IRadAn=       5 diagonalized for initial guess.
 HarFok:  IExCor=  402 AccDes= 0.00D+00 IRadAn=         5 IDoV= 1 UseB2=F ITyADJ=14
 ICtDFT=  3500011 ScaDFX=  1.000000  1.000000  1.000000  1.000000
 FoFCou: FMM=F IPFlag=           0 FMFlag=      100000 FMFlg1=           0
         NFxFlg=           0 DoJE=T BraDBF=F KetDBF=T FulRan=T
         wScrn=  0.000000 ICntrl=       500 IOpCl=  0 I1Cent=   200000004 NGrid=           0
         NMat0=    1 NMatS0=      1 NMatT0=    0 NMatD0=    1 NMtDS0=    0 NMtDT0=    0
 Symmetry not used in FoFCou.
 Harris En= -751.382533407346    
 JPrj=0 DoOrth=F DoCkMO=F.
 Leave Link  401 at Wed Jul 10 11:37:43 2024, MaxMem=  2684354560 cpu:             178.8 elap:              15.0
 (Enter /mnt/data/applications/G16/g16/l502.exe)
 Two-electron integral symmetry not used.
 Closed shell SCF:
 Using DIIS extrapolation, IDIIS=  1040.
 NGot=  2684354560 LenX=  2682663236 LenY=  2681825096
 Requested convergence on RMS density matrix=1.00D-08 within 128 cycles.
 Requested convergence on MAX density matrix=1.00D-06.
 Requested convergence on             energy=1.00D-06.
 No special actions if energy rises.
 Fock matrices will be formed incrementally for  20 cycles.

 Cycle   1  Pass 1  IDiag  1:
 FoFJK:  IHMeth= 1 ICntrl=       0 DoSepK=F KAlg= 0 I1Cent=           0 FoldK=F
 IRaf= 680000000 NMat=       1 IRICut=       1 DoRegI=T DoRafI=F ISym2E= 0 IDoP0=0 IntGTp=1.
 FoFCou: FMM=F IPFlag=           0 FMFlag=      100000 FMFlg1=           0
         NFxFlg=           0 DoJE=F BraDBF=F KetDBF=F FulRan=T
         wScrn=  0.000000 ICntrl=         0 IOpCl=  0 I1Cent=           0 NGrid=           0
         NMat0=    1 NMatS0=      1 NMatT0=    0 NMatD0=    1 NMtDS0=    0 NMtDT0=    0
 Symmetry not used in FoFCou.
 Inv3:  Mode=1 IEnd=    23268675.
 Iteration    1 A*A^-1 deviation from unit magnitude is 2.66D-15 for    636.
 Iteration    1 A*A^-1 deviation from orthogonality  is 2.22D-15 for   2584   1652.
 Iteration    1 A^-1*A deviation from unit magnitude is 2.44D-15 for    636.
 Iteration    1 A^-1*A deviation from orthogonality  is 5.04D-15 for   2101   2080.
 E= -750.756303530500    
 DIIS: error= 1.99D-02 at cycle   1 NSaved=   1.
 NSaved= 1 IEnMin= 1 EnMin= -750.756303530500     IErMin= 1 ErrMin= 1.99D-02
 ErrMax= 1.99D-02  0.00D+00 EMaxC= 1.00D-01 BMatC= 5.75D-01 BMatP= 5.75D-01
 IDIUse=3 WtCom= 8.01D-01 WtEn= 1.99D-01
 Coeff-Com:  0.100D+01
 Coeff-En:   0.100D+01
 Coeff:      0.100D+01
 Gap=     0.147 Goal=   None    Shift=    0.000
 GapD=    0.147 DampG=1.000 DampE=0.500 DampFc=0.5000 IDamp=-1.
 Damping current iteration by 5.00D-01
 RMSDP=2.28D-03 MaxDP=2.87D-01              OVMax= 2.11D-01

 Cycle   2  Pass 1  IDiag  1:
 RMSU=  1.14D-03    CP:  9.96D-01
 E= -750.955816437584     Delta-E=       -0.199512907084 Rises=F Damp=T
 DIIS: error= 7.40D-03 at cycle   2 NSaved=   2.
 NSaved= 2 IEnMin= 2 EnMin= -750.955816437584     IErMin= 2 ErrMin= 7.40D-03
 ErrMax= 7.40D-03  0.00D+00 EMaxC= 1.00D-01 BMatC= 6.18D-02 BMatP= 5.75D-01
 IDIUse=3 WtCom= 9.26D-01 WtEn= 7.40D-02
 Coeff-Com:  0.126D+00 0.874D+00
 Coeff-En:   0.211D+00 0.789D+00
 Coeff:      0.132D+00 0.868D+00
 Gap=     0.206 Goal=   None    Shift=    0.000
 RMSDP=7.07D-04 MaxDP=9.30D-02 DE=-2.00D-01 OVMax= 1.89D-01

 Cycle   3  Pass 1  IDiag  1:
 RMSU=  4.92D-04    CP:  9.94D-01  5.55D-01
 E= -751.214212403854     Delta-E=       -0.258395966270 Rises=F Damp=F
 DIIS: error= 1.25D-02 at cycle   3 NSaved=   3.
 NSaved= 3 IEnMin= 3 EnMin= -751.214212403854     IErMin= 2 ErrMin= 7.40D-03
 ErrMax= 1.25D-02  0.00D+00 EMaxC= 1.00D-01 BMatC= 8.68D-02 BMatP= 6.18D-02
 IDIUse=2 WtCom= 0.00D+00 WtEn= 1.00D+00
 Coeff-En:   0.000D+00 0.000D+00 0.100D+01
 Coeff:      0.000D+00 0.000D+00 0.100D+01
 Gap=     0.179 Goal=   None    Shift=    0.000
 RMSDP=1.24D-03 MaxDP=1.59D-01 DE=-2.58D-01 OVMax= 3.13D-01

 Cycle   4  Pass 1  IDiag  1:
 RMSU=  5.12D-04    CP:  1.00D+00  1.30D+00 -5.12D-01
 E= -750.860549162287     Delta-E=        0.353663241568 Rises=F Damp=F
 DIIS: error= 2.74D-02 at cycle   4 NSaved=   4.
 NSaved= 4 IEnMin= 3 EnMin= -751.214212403854     IErMin= 2 ErrMin= 7.40D-03
 ErrMax= 2.74D-02  0.00D+00 EMaxC= 1.00D-01 BMatC= 5.32D-01 BMatP= 6.18D-02
 IDIUse=2 WtCom= 0.00D+00 WtEn= 1.00D+00
 Coeff-En:   0.000D+00 0.000D+00 0.807D+00 0.193D+00
 Coeff:      0.000D+00 0.000D+00 0.807D+00 0.193D+00
 Gap=     0.172 Goal=   None    Shift=    0.000
 RMSDP=7.62D-04 MaxDP=1.18D-01 DE= 3.54D-01 OVMax= 1.17D-01

 Cycle   5  Pass 1  IDiag  1:
 RMSU=  1.23D-04    CP:  9.97D-01  8.13D-01  3.46D-01  4.55D-01
 E= -751.247395424615     Delta-E=       -0.386846262329 Rises=F Damp=F
 DIIS: error= 8.86D-03 at cycle   5 NSaved=   5.
 NSaved= 5 IEnMin= 5 EnMin= -751.247395424615     IErMin= 2 ErrMin= 7.40D-03
 ErrMax= 8.86D-03  0.00D+00 EMaxC= 1.00D-01 BMatC= 4.43D-02 BMatP= 6.18D-02
 IDIUse=3 WtCom= 9.11D-01 WtEn= 8.86D-02
 Coeff-Com:  0.209D-02 0.159D-01 0.316D+00-0.990D-01 0.765D+00
 Coeff-En:   0.000D+00 0.000D+00 0.374D+00 0.000D+00 0.626D+00
 Coeff:      0.190D-02 0.145D-01 0.321D+00-0.903D-01 0.753D+00
 Gap=     0.175 Goal=   None    Shift=    0.000
 RMSDP=2.16D-04 MaxDP=2.48D-02 DE=-3.87D-01 OVMax= 3.34D-02

 Cycle   6  Pass 1  IDiag  1:
 RMSU=  2.16D-05    CP:  9.96D-01  6.92D-01  6.18D-01  2.71D-01  7.99D-01
 E= -751.280733444853     Delta-E=       -0.033338020237 Rises=F Damp=F
 DIIS: error= 1.75D-04 at cycle   6 NSaved=   6.
 NSaved= 6 IEnMin= 6 EnMin= -751.280733444853     IErMin= 6 ErrMin= 1.75D-04
 ErrMax= 1.75D-04  0.00D+00 EMaxC= 1.00D-01 BMatC= 9.52D-05 BMatP= 4.43D-02
 IDIUse=3 WtCom= 9.98D-01 WtEn= 1.75D-03
 Coeff-Com:  0.830D-03 0.430D-02 0.147D+00-0.528D-01 0.378D+00 0.522D+00
 Coeff-En:   0.000D+00 0.000D+00 0.000D+00 0.000D+00 0.000D+00 0.100D+01
 Coeff:      0.829D-03 0.429D-02 0.147D+00-0.527D-01 0.378D+00 0.523D+00
 Gap=     0.170 Goal=   None    Shift=    0.000
 RMSDP=1.17D-05 MaxDP=1.05D-03 DE=-3.33D-02 OVMax= 4.02D-03

 Cycle   7  Pass 1  IDiag  1:
 RMSU=  8.90D-06    CP:  9.96D-01  6.95D-01  6.16D-01  2.73D-01  8.15D-01
                    CP:  7.03D-01
 E= -751.280792574682     Delta-E=       -0.000059129830 Rises=F Damp=F
 DIIS: error= 1.28D-04 at cycle   7 NSaved=   7.
 NSaved= 7 IEnMin= 7 EnMin= -751.280792574682     IErMin= 7 ErrMin= 1.28D-04
 ErrMax= 1.28D-04  0.00D+00 EMaxC= 1.00D-01 BMatC= 3.44D-05 BMatP= 9.52D-05
 IDIUse=3 WtCom= 9.99D-01 WtEn= 1.28D-03
 Coeff-Com:  0.713D-03-0.190D-02 0.305D-01-0.117D-01 0.726D-01 0.325D+00
 Coeff-Com:  0.585D+00
 Coeff-En:   0.000D+00 0.000D+00 0.000D+00 0.000D+00 0.000D+00 0.271D+00
 Coeff-En:   0.729D+00
 Coeff:      0.712D-03-0.189D-02 0.305D-01-0.117D-01 0.725D-01 0.325D+00
 Coeff:      0.585D+00
 Gap=     0.170 Goal=   None    Shift=    0.000
 RMSDP=4.68D-06 MaxDP=4.31D-04 DE=-5.91D-05 OVMax= 1.93D-03

 Cycle   8  Pass 1  IDiag  1:
 RMSU=  2.41D-06    CP:  9.96D-01  6.94D-01  6.19D-01  2.72D-01  8.07D-01
                    CP:  8.09D-01  7.45D-01
 E= -751.280824571609     Delta-E=       -0.000031996927 Rises=F Damp=F
 DIIS: error= 3.04D-05 at cycle   8 NSaved=   8.
 NSaved= 8 IEnMin= 8 EnMin= -751.280824571609     IErMin= 8 ErrMin= 3.04D-05
 ErrMax= 3.04D-05  0.00D+00 EMaxC= 1.00D-01 BMatC= 1.74D-06 BMatP= 3.44D-05
 IDIUse=1 WtCom= 1.00D+00 WtEn= 0.00D+00
 Coeff-Com:  0.443D-03-0.145D-02 0.601D-02-0.189D-02 0.873D-02 0.135D+00
 Coeff-Com:  0.313D+00 0.539D+00
 Coeff:      0.443D-03-0.145D-02 0.601D-02-0.189D-02 0.873D-02 0.135D+00
 Coeff:      0.313D+00 0.539D+00
 Gap=     0.170 Goal=   None    Shift=    0.000
 RMSDP=1.62D-06 MaxDP=1.87D-04 DE=-3.20D-05 OVMax= 3.51D-04

 Cycle   9  Pass 1  IDiag  1:
 RMSU=  7.84D-07    CP:  9.96D-01  6.93D-01  6.20D-01  2.72D-01  8.07D-01
                    CP:  8.07D-01  7.52D-01  6.79D-01
 E= -751.280826030638     Delta-E=       -0.000001459028 Rises=F Damp=F
 DIIS: error= 5.72D-06 at cycle   9 NSaved=   9.
 NSaved= 9 IEnMin= 9 EnMin= -751.280826030638     IErMin= 9 ErrMin= 5.72D-06
 ErrMax= 5.72D-06  0.00D+00 EMaxC= 1.00D-01 BMatC= 7.53D-08 BMatP= 1.74D-06
 IDIUse=1 WtCom= 1.00D+00 WtEn= 0.00D+00
 Coeff-Com:  0.127D-03-0.372D-03-0.362D-03 0.241D-03-0.307D-02 0.265D-01
 Coeff-Com:  0.753D-01 0.241D+00 0.661D+00
 Coeff:      0.127D-03-0.372D-03-0.362D-03 0.241D-03-0.307D-02 0.265D-01
 Coeff:      0.753D-01 0.241D+00 0.661D+00
 Gap=     0.170 Goal=   None    Shift=    0.000
 RMSDP=3.21D-07 MaxDP=2.69D-05 DE=-1.46D-06 OVMax= 1.07D-04

 Cycle  10  Pass 1  IDiag  1:
 RMSU=  2.25D-07    CP:  9.96D-01  6.93D-01  6.20D-01  2.72D-01  8.07D-01
                    CP:  8.11D-01  7.62D-01  7.16D-01  8.04D-01
 E= -751.280826081277     Delta-E=       -0.000000050639 Rises=F Damp=F
 DIIS: error= 3.13D-06 at cycle  10 NSaved=  10.
 NSaved=10 IEnMin=10 EnMin= -751.280826081277     IErMin=10 ErrMin= 3.13D-06
 ErrMax= 3.13D-06  0.00D+00 EMaxC= 1.00D-01 BMatC= 2.19D-08 BMatP= 7.53D-08
 IDIUse=1 WtCom= 1.00D+00 WtEn= 0.00D+00
 Coeff-Com:  0.445D-04-0.123D-03-0.684D-03 0.265D-03-0.243D-02 0.802D-02
 Coeff-Com:  0.257D-01 0.116D+00 0.420D+00 0.433D+00
 Coeff:      0.445D-04-0.123D-03-0.684D-03 0.265D-03-0.243D-02 0.802D-02
 Coeff:      0.257D-01 0.116D+00 0.420D+00 0.433D+00
 Gap=     0.170 Goal=   None    Shift=    0.000
 RMSDP=1.56D-07 MaxDP=1.24D-05 DE=-5.06D-08 OVMax= 4.58D-05

 Cycle  11  Pass 1  IDiag  1:
 RMSU=  6.97D-08    CP:  9.96D-01  6.93D-01  6.20D-01  2.72D-01  8.07D-01
                    CP:  8.12D-01  7.63D-01  7.29D-01  8.19D-01  6.05D-01
 E= -751.280826100247     Delta-E=       -0.000000018970 Rises=F Damp=F
 DIIS: error= 2.03D-06 at cycle  11 NSaved=  11.
 NSaved=11 IEnMin=11 EnMin= -751.280826100247     IErMin=11 ErrMin= 2.03D-06
 ErrMax= 2.03D-06  0.00D+00 EMaxC= 1.00D-01 BMatC= 2.04D-09 BMatP= 2.19D-08
 IDIUse=1 WtCom= 1.00D+00 WtEn= 0.00D+00
 Coeff-Com: -0.220D-05 0.427D-07-0.363D-03 0.134D-03-0.870D-03-0.166D-04
 Coeff-Com:  0.661D-03 0.223D-01 0.102D+00 0.162D+00 0.714D+00
 Coeff:     -0.220D-05 0.427D-07-0.363D-03 0.134D-03-0.870D-03-0.166D-04
 Coeff:      0.661D-03 0.223D-01 0.102D+00 0.162D+00 0.714D+00
 Gap=     0.170 Goal=   None    Shift=    0.000
 RMSDP=4.41D-08 MaxDP=3.04D-06 DE=-1.90D-08 OVMax= 1.11D-05

 Cycle  12  Pass 1  IDiag  1:
 RMSU=  2.22D-08    CP:  9.96D-01  6.93D-01  6.20D-01  2.72D-01  8.07D-01
                    CP:  8.12D-01  7.63D-01  7.31D-01  8.36D-01  6.70D-01
                    CP:  9.09D-01
 E= -751.280826101619     Delta-E=       -0.000000001372 Rises=F Damp=F
 DIIS: error= 5.30D-07 at cycle  12 NSaved=  12.
 NSaved=12 IEnMin=12 EnMin= -751.280826101619     IErMin=12 ErrMin= 5.30D-07
 ErrMax= 5.30D-07  0.00D+00 EMaxC= 1.00D-01 BMatC= 3.46D-10 BMatP= 2.04D-09
 IDIUse=1 WtCom= 1.00D+00 WtEn= 0.00D+00
 Coeff-Com: -0.837D-05 0.157D-04-0.129D-03 0.426D-04-0.170D-03-0.850D-03
 Coeff-Com: -0.281D-02-0.775D-03 0.880D-02 0.352D-01 0.413D+00 0.547D+00
 Coeff:     -0.837D-05 0.157D-04-0.129D-03 0.426D-04-0.170D-03-0.850D-03
 Coeff:     -0.281D-02-0.775D-03 0.880D-02 0.352D-01 0.413D+00 0.547D+00
 Gap=     0.170 Goal=   None    Shift=    0.000
 RMSDP=2.96D-08 MaxDP=3.44D-06 DE=-1.37D-09 OVMax= 3.89D-06

 Cycle  13  Pass 1  IDiag  1:
 RMSU=  8.56D-09    CP:  9.96D-01  6.93D-01  6.20D-01  2.72D-01  8.07D-01
                    CP:  8.13D-01  7.63D-01  7.33D-01  8.37D-01  6.70D-01
                    CP:  9.98D-01  7.58D-01
 E= -751.280826101913     Delta-E=       -0.000000000294 Rises=F Damp=F
 DIIS: error= 1.13D-07 at cycle  13 NSaved=  13.
 NSaved=13 IEnMin=13 EnMin= -751.280826101913     IErMin=13 ErrMin= 1.13D-07
 ErrMax= 1.13D-07  0.00D+00 EMaxC= 1.00D-01 BMatC= 1.76D-11 BMatP= 3.46D-10
 IDIUse=1 WtCom= 1.00D+00 WtEn= 0.00D+00
 Coeff-Com: -0.330D-05 0.635D-05-0.171D-04 0.481D-05 0.119D-04-0.261D-03
 Coeff-Com: -0.101D-02-0.215D-02-0.687D-02-0.752D-02 0.694D-01 0.193D+00
 Coeff-Com:  0.755D+00
 Coeff:     -0.330D-05 0.635D-05-0.171D-04 0.481D-05 0.119D-04-0.261D-03
 Coeff:     -0.101D-02-0.215D-02-0.687D-02-0.752D-02 0.694D-01 0.193D+00
 Coeff:      0.755D+00
 Gap=     0.170 Goal=   None    Shift=    0.000
 RMSDP=7.58D-09 MaxDP=7.68D-07 DE=-2.94D-10 OVMax= 1.15D-06

 Error on total polarization charges =  0.01785
 SCF Done:  E(RB3LYP) =  -751.280826102     A.U. after   13 cycles
            NFock= 13  Conv=0.76D-08     -V/T= 2.0073
 KE= 7.458568547231D+02 PE=-4.006686982694D+03 EE= 1.378358071509D+03
 Leave Link  502 at Wed Jul 10 12:00:52 2024, MaxMem=  2684354560 cpu:           16573.6 elap:            1389.3
 (Enter /mnt/data/applications/G16/g16/l601.exe)
 Copying SCF densities to generalized density rwf, IOpCl= 0 IROHF=0.

 **********************************************************************

            Population analysis using the SCF density.

 **********************************************************************

 Alpha  occ. eigenvalues --  -19.11345 -14.34759 -10.30213 -10.21393 -10.21275
 Alpha  occ. eigenvalues --  -10.20437 -10.18843 -10.18746 -10.18634 -10.18217
 Alpha  occ. eigenvalues --  -10.18168 -10.18145 -10.18135 -10.17918 -10.17866
 Alpha  occ. eigenvalues --  -10.17849 -10.17194 -10.17100  -1.03023  -0.93121
 Alpha  occ. eigenvalues --   -0.86208  -0.82849  -0.81240  -0.78275  -0.76115
 Alpha  occ. eigenvalues --   -0.74782  -0.72968  -0.68589  -0.65737  -0.62365
 Alpha  occ. eigenvalues --   -0.60774  -0.60641  -0.58262  -0.57799  -0.51991
 Alpha  occ. eigenvalues --   -0.51099  -0.49226  -0.49029  -0.48167  -0.47820
 Alpha  occ. eigenvalues --   -0.46124  -0.45925  -0.45078  -0.43630  -0.42722
 Alpha  occ. eigenvalues --   -0.42288  -0.41795  -0.41213  -0.40555  -0.40029
 Alpha  occ. eigenvalues --   -0.38017  -0.36738  -0.36329  -0.35999  -0.35318
 Alpha  occ. eigenvalues --   -0.34925  -0.34105  -0.33018  -0.32323  -0.27335
 Alpha  occ. eigenvalues --   -0.26267  -0.26017  -0.25767  -0.24877  -0.23199
 Alpha virt. eigenvalues --   -0.06205  -0.01631  -0.01365  -0.00774   0.01069
 Alpha virt. eigenvalues --    0.03755   0.04378   0.05380   0.05799   0.06516
 Alpha virt. eigenvalues --    0.06988   0.07307   0.08059   0.08757   0.09008
 Alpha virt. eigenvalues --    0.09651   0.10518   0.11215   0.12033   0.12377
 Alpha virt. eigenvalues --    0.12913   0.13722   0.14259   0.14879   0.15647
 Alpha virt. eigenvalues --    0.16306   0.16954   0.17501   0.18000   0.18962
 Alpha virt. eigenvalues --    0.19943   0.20511   0.21681   0.22739   0.23568
 Alpha virt. eigenvalues --    0.24022   0.24151   0.24538   0.25041   0.25549
 Alpha virt. eigenvalues --    0.26028   0.26855   0.27458   0.27905   0.28082
 Alpha virt. eigenvalues --    0.28563   0.29632   0.30096   0.30456   0.30759
 Alpha virt. eigenvalues --    0.31156   0.31434   0.32590   0.33397   0.34450
 Alpha virt. eigenvalues --    0.35437   0.35921   0.36376   0.36531   0.36959
 Alpha virt. eigenvalues --    0.37334   0.38070   0.38334   0.38808   0.39468
 Alpha virt. eigenvalues --    0.39758   0.39993   0.40242   0.40827   0.41395
 Alpha virt. eigenvalues --    0.42280   0.42573   0.42720   0.43338   0.43734
 Alpha virt. eigenvalues --    0.44235   0.44522   0.45203   0.45311   0.46002
 Alpha virt. eigenvalues --    0.46458   0.46834   0.47070   0.47509   0.47719
 Alpha virt. eigenvalues --    0.48193   0.48353   0.48447   0.48850   0.49342
 Alpha virt. eigenvalues --    0.49846   0.50275   0.50668   0.51022   0.51407
 Alpha virt. eigenvalues --    0.52178   0.52675   0.52882   0.53649   0.53713
 Alpha virt. eigenvalues --    0.54598   0.54969   0.55651   0.56059   0.56641
 Alpha virt. eigenvalues --    0.57795   0.58285   0.59066   0.59782   0.61176
 Alpha virt. eigenvalues --    0.63065   0.63508   0.64280   0.64779   0.65348
 Alpha virt. eigenvalues --    0.66775   0.67292   0.68631   0.69690   0.70258
 Alpha virt. eigenvalues --    0.71389   0.71610   0.72197   0.72629   0.73123
 Alpha virt. eigenvalues --    0.73912   0.74958   0.75513   0.75622   0.76239
 Alpha virt. eigenvalues --    0.76838   0.77378   0.78317   0.78955   0.79251
 Alpha virt. eigenvalues --    0.80039   0.80663   0.80855   0.81844   0.82822
 Alpha virt. eigenvalues --    0.83828   0.84435   0.85436   0.86287   0.87484
 Alpha virt. eigenvalues --    0.87810   0.88405   0.89418   0.90822   0.91215
 Alpha virt. eigenvalues --    0.91795   0.91978   0.93456   0.93577   0.93792
 Alpha virt. eigenvalues --    0.94744   0.95850   0.96164   0.97186   0.98113
 Alpha virt. eigenvalues --    0.98652   0.99173   1.00164   1.00911   1.01312
 Alpha virt. eigenvalues --    1.02995   1.03438   1.04244   1.04535   1.04879
 Alpha virt. eigenvalues --    1.05629   1.06213   1.07156   1.07851   1.07997
 Alpha virt. eigenvalues --    1.08567   1.09669   1.10103   1.10934   1.11561
 Alpha virt. eigenvalues --    1.12146   1.13179   1.13392   1.13954   1.14710
 Alpha virt. eigenvalues --    1.15608   1.16380   1.16724   1.17323   1.18069
 Alpha virt. eigenvalues --    1.18431   1.19317   1.19549   1.19941   1.20793
 Alpha virt. eigenvalues --    1.21498   1.22101   1.22585   1.23642   1.24232
 Alpha virt. eigenvalues --    1.24669   1.25236   1.26041   1.26372   1.26724
 Alpha virt. eigenvalues --    1.27284   1.28591   1.29055   1.29375   1.30018
 Alpha virt. eigenvalues --    1.30385   1.31043   1.31412   1.32108   1.32829
 Alpha virt. eigenvalues --    1.33255   1.33420   1.33846   1.35766   1.36070
 Alpha virt. eigenvalues --    1.36679   1.37253   1.37937   1.38553   1.39297
 Alpha virt. eigenvalues --    1.39639   1.40188   1.41073   1.41634   1.42196
 Alpha virt. eigenvalues --    1.42466   1.43421   1.44160   1.45063   1.45214
 Alpha virt. eigenvalues --    1.46004   1.46523   1.48416   1.48689   1.49118
 Alpha virt. eigenvalues --    1.49674   1.50662   1.51082   1.52713   1.54264
 Alpha virt. eigenvalues --    1.55218   1.56836   1.57046   1.57666   1.57979
 Alpha virt. eigenvalues --    1.59205   1.60283   1.62127   1.62574   1.63837
 Alpha virt. eigenvalues --    1.65486   1.66695   1.67426   1.68893   1.69161
 Alpha virt. eigenvalues --    1.70866   1.71982   1.72444   1.73175   1.76120
 Alpha virt. eigenvalues --    1.77066   1.78709   1.82734   1.86250   1.86768
 Alpha virt. eigenvalues --    1.89501   1.91928   1.92772   1.93392   1.95600
 Alpha virt. eigenvalues --    1.98387   1.99957   2.03549   2.04566   2.08754
 Alpha virt. eigenvalues --    2.09711   2.10009   2.12619   2.13288   2.13723
 Alpha virt. eigenvalues --    2.15020   2.17450   2.18960   2.19723   2.20391
 Alpha virt. eigenvalues --    2.21422   2.23249   2.23948   2.26763   2.28630
 Alpha virt. eigenvalues --    2.29375   2.29950   2.31703   2.32406   2.32871
 Alpha virt. eigenvalues --    2.33285   2.35813   2.36546   2.37511   2.37864
 Alpha virt. eigenvalues --    2.38577   2.39502   2.39967   2.41767   2.43557
 Alpha virt. eigenvalues --    2.43773   2.44368   2.44964   2.45356   2.46093
 Alpha virt. eigenvalues --    2.47031   2.48167   2.49030   2.49506   2.50271
 Alpha virt. eigenvalues --    2.51164   2.52322   2.52843   2.53104   2.54744
 Alpha virt. eigenvalues --    2.55404   2.56327   2.57517   2.58379   2.58673
 Alpha virt. eigenvalues --    2.59131   2.59432   2.59961   2.61278   2.62062
 Alpha virt. eigenvalues --    2.62753   2.64256   2.65293   2.65712   2.66333
 Alpha virt. eigenvalues --    2.66811   2.67548   2.67926   2.68507   2.68907
 Alpha virt. eigenvalues --    2.69530   2.70172   2.70757   2.72087   2.72651
 Alpha virt. eigenvalues --    2.72961   2.73291   2.73816   2.74528   2.75328
 Alpha virt. eigenvalues --    2.76201   2.77069   2.78869   2.79664   2.80969
 Alpha virt. eigenvalues --    2.81366   2.81834   2.82228   2.83296   2.84078
 Alpha virt. eigenvalues --    2.85508   2.85905   2.87175   2.87757   2.88202
 Alpha virt. eigenvalues --    2.88611   2.89487   2.89821   2.91070   2.91483
 Alpha virt. eigenvalues --    2.92020   2.92127   2.92986   2.93514   2.94842
 Alpha virt. eigenvalues --    2.95627   2.95700   2.96525   2.96873   2.97280
 Alpha virt. eigenvalues --    2.97831   2.99004   2.99230   2.99963   3.00324
 Alpha virt. eigenvalues --    3.01350   3.01761   3.02194   3.02996   3.03269
 Alpha virt. eigenvalues --    3.04079   3.04275   3.04592   3.05065   3.05621
 Alpha virt. eigenvalues --    3.06199   3.06549   3.07328   3.07392   3.07501
 Alpha virt. eigenvalues --    3.07883   3.08846   3.09005   3.09543   3.10035
 Alpha virt. eigenvalues --    3.11136   3.12374   3.12778   3.13529   3.14065
 Alpha virt. eigenvalues --    3.14179   3.15024   3.15520   3.16185   3.16532
 Alpha virt. eigenvalues --    3.17097   3.17963   3.18327   3.18438   3.19062
 Alpha virt. eigenvalues --    3.20325   3.20618   3.21106   3.21678   3.22199
 Alpha virt. eigenvalues --    3.22794   3.23641   3.24100   3.25014   3.25815
 Alpha virt. eigenvalues --    3.26000   3.27521   3.28049   3.29519   3.29937
 Alpha virt. eigenvalues --    3.30587   3.31161   3.32063   3.32163   3.32247
 Alpha virt. eigenvalues --    3.33140   3.34376   3.34985   3.35700   3.36222
 Alpha virt. eigenvalues --    3.36694   3.37075   3.37620   3.38172   3.38580
 Alpha virt. eigenvalues --    3.39728   3.39946   3.41080   3.41336   3.42465
 Alpha virt. eigenvalues --    3.42614   3.43678   3.43846   3.45116   3.45324
 Alpha virt. eigenvalues --    3.46590   3.48670   3.49565   3.50908   3.52261
 Alpha virt. eigenvalues --    3.53043   3.54784   3.56058   3.57037   3.57265
 Alpha virt. eigenvalues --    3.57958   3.58983   3.59378   3.61460   3.61747
 Alpha virt. eigenvalues --    3.63090   3.63882   3.64566   3.65005   3.65774
 Alpha virt. eigenvalues --    3.66282   3.67056   3.67430   3.69041   3.70143
 Alpha virt. eigenvalues --    3.70652   3.71835   3.72370   3.72810   3.74303
 Alpha virt. eigenvalues --    3.74752   3.75033   3.75279   3.75412   3.76290
 Alpha virt. eigenvalues --    3.76485   3.76697   3.77090   3.77591   3.78586
 Alpha virt. eigenvalues --    3.79119   3.79891   3.80782   3.82092   3.82304
 Alpha virt. eigenvalues --    3.82761   3.83588   3.84350   3.84899   3.86260
 Alpha virt. eigenvalues --    3.86642   3.87401   3.87690   3.88204   3.89094
 Alpha virt. eigenvalues --    3.89386   3.90594   3.90971   3.91539   3.92255
 Alpha virt. eigenvalues --    3.92485   3.94052   3.94584   3.95145   3.96660
 Alpha virt. eigenvalues --    3.97179   3.97717   3.98759   3.99270   4.00560
 Alpha virt. eigenvalues --    4.00702   4.01620   4.01920   4.03159   4.03489
 Alpha virt. eigenvalues --    4.04293   4.04577   4.05686   4.06510   4.07211
 Alpha virt. eigenvalues --    4.07402   4.08021   4.08321   4.09323   4.11134
 Alpha virt. eigenvalues --    4.11609   4.12038   4.12238   4.13343   4.14323
 Alpha virt. eigenvalues --    4.16029   4.16190   4.16500   4.17211   4.18360
 Alpha virt. eigenvalues --    4.19428   4.19866   4.20932   4.21255   4.22148
 Alpha virt. eigenvalues --    4.22347   4.24063   4.24258   4.24990   4.25776
 Alpha virt. eigenvalues --    4.27139   4.27407   4.28859   4.29010   4.29339
 Alpha virt. eigenvalues --    4.30107   4.31344   4.32478   4.32837   4.33206
 Alpha virt. eigenvalues --    4.33679   4.34044   4.34512   4.35664   4.36725
 Alpha virt. eigenvalues --    4.37607   4.38197   4.39147   4.40703   4.41153
 Alpha virt. eigenvalues --    4.42773   4.46181   4.46881   4.48310   4.48683
 Alpha virt. eigenvalues --    4.50065   4.50904   4.51430   4.53743   4.55384
 Alpha virt. eigenvalues --    4.56176   4.57019   4.59111   4.60561   4.60817
 Alpha virt. eigenvalues --    4.63721   4.64896   4.65953   4.66398   4.68026
 Alpha virt. eigenvalues --    4.68808   4.69596   4.70261   4.71834   4.72280
 Alpha virt. eigenvalues --    4.74341   4.75109   4.75411   4.75801   4.78329
 Alpha virt. eigenvalues --    4.78821   4.80710   4.81950   4.82709   4.84281
 Alpha virt. eigenvalues --    4.85662   4.87597   4.88134   4.89552   4.90068
 Alpha virt. eigenvalues --    4.92484   4.93374   4.94671   4.95673   4.96063
 Alpha virt. eigenvalues --    4.96847   4.98375   4.99353   5.00087   5.00731
 Alpha virt. eigenvalues --    5.02694   5.03354   5.04218   5.04693   5.06151
 Alpha virt. eigenvalues --    5.07236   5.08632   5.10054   5.10941   5.12167
 Alpha virt. eigenvalues --    5.13416   5.14178   5.14799   5.15857   5.16977
 Alpha virt. eigenvalues --    5.17236   5.18230   5.20268   5.20460   5.21144
 Alpha virt. eigenvalues --    5.23509   5.27402   5.28885   5.30069   5.31024
 Alpha virt. eigenvalues --    5.32746   5.33141   5.35234   5.35779   5.37231
 Alpha virt. eigenvalues --    5.37984   5.40283   5.40825   5.41984   5.43336
 Alpha virt. eigenvalues --    5.45622   5.46252   5.47217   5.48770   5.49677
 Alpha virt. eigenvalues --    5.52835   5.53743   5.54825   5.55462   5.57868
 Alpha virt. eigenvalues --    5.59004   5.61898   5.64198   5.64228   5.65501
 Alpha virt. eigenvalues --    5.66030   5.67412   5.70883   5.71359   5.71787
 Alpha virt. eigenvalues --    5.73000   5.76838   5.78589   5.79868   5.89343
 Alpha virt. eigenvalues --    5.91015   5.91551   5.93661   5.98572   5.99206
 Alpha virt. eigenvalues --    6.00823   6.01260   6.03021   6.04254   6.04461
 Alpha virt. eigenvalues --    6.05547   6.11441   6.11648   6.24151   6.34964
 Alpha virt. eigenvalues --    6.36772   6.44128   6.57862   6.58580   6.77651
 Alpha virt. eigenvalues --    6.82138   6.99611   7.02968   8.22598   8.70268
 Alpha virt. eigenvalues --    9.94389  11.76030  11.98513  12.08270  12.41919
 Alpha virt. eigenvalues --   12.62386  12.66922  12.83975  12.91861  13.00155
 Alpha virt. eigenvalues --   13.04805  13.12854  13.40747  13.47253  13.56391
 Alpha virt. eigenvalues --   15.30301
          Condensed to atoms (all electrons):
               1          2          3          4          5          6
     1  C    5.046448   0.422342   0.388434   0.305630  -0.031851  -0.059538
     2  H    0.422342   0.543537  -0.036454  -0.036492  -0.007816   0.006292
     3  H    0.388434  -0.036454   0.692115  -0.052272   0.010293  -0.046231
     4  C    0.305630  -0.036492  -0.052272   4.917369   0.404567   0.451318
     5  H   -0.031851  -0.007816   0.010293   0.404567   0.579020  -0.041015
     6  H   -0.059538   0.006292  -0.046231   0.451318  -0.041015   0.612766
     7  C   -0.037146   0.003624   0.007708   0.313919  -0.023806  -0.040967
     8  H    0.007517  -0.000251  -0.001179  -0.029420  -0.003958  -0.005564
     9  H   -0.002762   0.000304  -0.000665  -0.030896  -0.008750   0.008460
    10  C   -0.061985   0.002088   0.002257   0.000758   0.000195   0.001380
    11  N    0.244570  -0.016659  -0.088997  -0.030936   0.001984   0.008911
    12  H   -0.041545  -0.000552  -0.032581   0.008151  -0.000554   0.001025
    13  O    0.002734  -0.000201  -0.001015  -0.000483   0.000015   0.000022
    14  C    0.015098  -0.001457   0.000713  -0.040076   0.007315  -0.004029
    15  C   -0.003937   0.000213  -0.000268   0.000790  -0.000305   0.002802
    16  C   -0.000224   0.000005  -0.000042  -0.000069   0.000000   0.000138
    17  H   -0.000006   0.000000   0.000002  -0.000009   0.000001   0.000004
    18  C   -0.000000   0.000000   0.000000  -0.000000   0.000000   0.000000
    19  H   -0.000000   0.000000   0.000000  -0.000000   0.000000  -0.000000
    20  H   -0.000000   0.000000   0.000000   0.000000  -0.000000   0.000000
    21  C   -0.000003   0.000000  -0.000010   0.000048  -0.000002   0.000015
    22  H    0.000001  -0.000000   0.000000  -0.000046   0.000002   0.000001
    23  H   -0.000002   0.000000   0.000004   0.000007  -0.000000   0.000009
    24  C   -0.000000   0.000000  -0.000000   0.000000  -0.000000   0.000000
    25  H   -0.000000  -0.000000  -0.000000  -0.000000   0.000000   0.000000
    26  H    0.000000  -0.000000  -0.000000  -0.000000  -0.000000  -0.000000
    27  C   -0.000000   0.000000   0.000000   0.000000   0.000000   0.000000
    28  C   -0.000000  -0.000000   0.000000   0.000000  -0.000000   0.000000
    29  C    0.000000  -0.000000   0.000000  -0.000000  -0.000000  -0.000000
    30  C   -0.000000   0.000000   0.000000   0.000000   0.000000   0.000000
    31  H   -0.000000   0.000000  -0.000000   0.000000  -0.000000   0.000000
    32  C   -0.000000   0.000000   0.000000   0.000000  -0.000000  -0.000000
    33  H    0.000000   0.000000  -0.000000   0.000000  -0.000000  -0.000000
    34  C    0.000000  -0.000000  -0.000000   0.000000   0.000000   0.000000
    35  H   -0.000000   0.000000  -0.000000  -0.000000  -0.000000  -0.000000
    36  H    0.000000   0.000000  -0.000000   0.000000  -0.000000  -0.000000
    37  H   -0.000000  -0.000000   0.000000   0.000000   0.000000   0.000000
               7          8          9         10         11         12
     1  C   -0.037146   0.007517  -0.002762  -0.061985   0.244570  -0.041545
     2  H    0.003624  -0.000251   0.000304   0.002088  -0.016659  -0.000552
     3  H    0.007708  -0.001179  -0.000665   0.002257  -0.088997  -0.032581
     4  C    0.313919  -0.029420  -0.030896   0.000758  -0.030936   0.008151
     5  H   -0.023806  -0.003958  -0.008750   0.000195   0.001984  -0.000554
     6  H   -0.040967  -0.005564   0.008460   0.001380   0.008911   0.001025
     7  C    4.855842   0.415912   0.409857  -0.019344  -0.002179  -0.001673
     8  H    0.415912   0.572026  -0.028732   0.000371  -0.000475   0.000170
[...]
 000310,0.00000291,-0.00000046,0.00000145,-0.00000168,-0.00000041,-0.00
 000058,-0.00000004,0.00000020,-0.00000335,-0.00000214,-0.00000538,0.00
 000002,-0.00000034,0.00000061,0.00000450,0.,-0.00000104,0.00001588,0.0
 0001585,0.00001985,-0.00000046,-0.00000980,-0.00000865,0.00000127,-0.0
 0000016,-0.00000042,-0.00000821,-0.00000655,-0.00000747,-0.00000229,-0
 .00001717,-0.00001268,-0.00000929,0.00002836,-0.00000189,0.00004288,-0
 .00001732,0.00000625,-0.00000165,0.00000156,-0.00000314,0.00010685,0.0
 0004655,0.00005216,0.00002491,-0.00001955,-0.00004441,0.00001469,0.000
 00952,0.00001234,-0.00003487,0.00002699,-0.00007331,-0.00000427,0.0000
 0087,0.00000055,0.00000275,-0.00000823,0.00000023,0.00112448,0.0010240
 7,0.00022114,0.00002713,-0.00010706,-0.00026824,0.00004491,-0.00016762
 ,-0.00003725,0.00999867,0.01409725,0.00349897,-0.00107863,0.00308044,0
 .00155582,-0.11949476,-0.11024011,-0.02496546,-0.00076021,0.00058075,0
 .00015023,0.00052195,0.00075374,0.00022732,-0.01060611,-0.02874671,-0.
 00698159,0.12475145,-0.00000041,-0.00000021,-0.00000006,0.00000008,0.0
 0000002,-0.00000009,-0.00000001,0.00000012,0.00000012,-0.00000039,-0.0
 0000055,0.00000037,0.,0.00000024,-0.00000002,-0.00000010,0.00000005,-0
 .00000017,0.00000008,0.00000093,-0.00000009,0.00000024,0.00000003,0.00
 000018,-0.00000019,0.00000003,-0.00000005,-0.00000403,-0.00000380,-0.0
 0000139,0.00000113,0.00000131,0.00000017,-0.00000028,-0.00000016,0.000
 00037,0.00000316,0.00000240,0.00000122,-0.00000163,0.00000176,0.000001
 38,0.00000251,0.,-0.00000291,0.00001166,-0.00000278,-0.00000345,0.0000
 0106,0.00000081,-0.00000181,0.00018533,0.00006572,0.00000574,-0.000050
 40,0.00002063,0.00006286,0.00001651,0.00001105,-0.00010741,0.00001650,
 0.00001944,-0.00005867,0.00000287,-0.00000104,0.00000136,-0.00001776,-
 0.00000573,0.00000580,-0.00174550,0.00041272,0.00107298,0.00101093,0.0
 0045680,0.00030253,0.00011254,0.00025837,0.00022093,-0.01381415,-0.018
 60270,-0.00542410,0.00362282,-0.00206908,-0.00287111,-0.11005476,-0.25
 639835,-0.05399692,0.00085931,0.00007590,0.00019247,-0.00068938,-0.000
 99607,-0.00025081,0.00123002,0.00221127,-0.00033026,0.11965885,0.27187
 673,-0.00000041,-0.00000020,0.00000059,0.00000018,0.,-0.00000012,0.000
 00001,0.00000002,-0.00000002,0.00000010,0.00000046,0.00000021,0.000000
 15,-0.00000023,0.,-0.00000012,0.00000010,-0.00000011,-0.00000081,0.000
 00302,-0.00000425,-0.00000014,-0.00000047,0.00000015,0.00000219,-0.000
 00005,-0.00000069,0.00000996,-0.00000261,0.00000898,-0.00000209,-0.000
 00060,-0.00000262,0.00000045,-0.00000026,-0.00000041,-0.00000605,0.000
 00018,-0.00000227,-0.00000442,-0.00000843,-0.00000463,0.00000035,0.000
 01367,-0.00000915,0.00006890,-0.00000712,0.00000844,-0.00000078,0.0000
 0191,-0.00000108,0.00051512,-0.00021349,0.00001280,-0.00003293,0.00002
 042,0.00004678,0.00007563,0.00005353,-0.00018241,-0.00000943,0.0001713
 6,-0.00019376,0.00000308,0.00000167,0.00000632,-0.00003999,-0.00001182
 ,0.00000896,-0.00038382,0.00169348,-0.00321279,0.00008581,-0.00034473,
 -0.00004252,-0.00032480,0.00011209,0.00022516,-0.00533028,-0.00762295,
 0.00212574,0.00181880,-0.00261211,0.00568906,-0.02461491,-0.05444514,-
 0.05073387,0.00017262,0.00022991,-0.00081970,-0.00018657,-0.00042968,0
 .00008596,0.00163153,0.00229228,0.00370958,0.02606236,0.06105103,0.041
 01534,0.00001142,-0.00000170,-0.00000356,-0.00000398,-0.00000097,0.000
 00090,-0.00000187,0.00000252,0.00000145,-0.00001136,-0.00001126,0.0000
 0197,-0.00000501,0.00000632,0.00000149,0.00000225,0.00000062,-0.000001
 03,0.00001422,0.00000396,0.00002480,0.00000034,0.00000130,-0.00000234,
 -0.00001795,0.00000052,0.00000366,-0.00006928,-0.00005365,-0.00007618,
 0.00000572,0.00003561,0.00003106,-0.00000533,0.00000042,0.00000278,0.0
 0003687,0.00002499,0.00002679,0.00001372,0.00006653,0.00005018,0.00003
 439,-0.00012216,-0.00000823,-0.00020751,0.00006015,-0.00002841,0.00001
 164,-0.00000188,0.00001143,-0.00064390,0.00017555,-0.00099659,0.000093
 04,0.00008281,0.00000529,0.00009231,-0.00008531,-0.00000916,0.00017538
 ,-0.00009671,0.00033124,-0.00002721,-0.00001965,-0.00001064,-0.0000292
 5,0.00001862,-0.00000467,-0.00083883,-0.00021796,0.00125585,-0.0001329
 3,0.00012672,-0.00006062,-0.00015740,-0.00013660,-0.00010597,0.0029437
 6,0.00213954,-0.00078470,-0.03218138,0.02653463,0.01110917,-0.02668304
 ,-0.03134763,-0.00591790,-0.18348569,0.11369176,0.04311404,-0.00528266
 ,-0.00084935,0.00087099,-0.17483860,-0.11449897,-0.02309593,-0.0053804
 7,-0.00010504,0.00109910,0.73611338,0.00000045,-0.00000023,0.,-0.00000
 017,0.00000002,-0.00000010,-0.00000013,0.00000020,0.00000015,-0.000000
 13,-0.00000079,0.00000011,-0.00000019,0.00000020,0.00000002,0.00000010
 ,0.00000021,-0.00000018,0.00000034,-0.00000251,0.00000345,-0.00000005,
 0.00000024,0.,-0.00000166,0.00000018,-0.00000003,-0.00000589,-0.000002
 87,-0.00000882,0.00000046,0.00000244,0.00000180,-0.00000037,-0.0000005
 3,0.00000070,0.00000393,0.00000223,0.00000143,-0.00000058,0.00000511,0
 .00000389,-0.00000152,-0.00001997,-0.00000592,-0.00001669,0.00001128,0
 .00001569,0.00000353,-0.00000124,0.00000155,-0.00003133,0.00087583,0.0
 0014414,-0.00012895,-0.00001010,0.00056938,0.00010314,0.00023457,-0.00
 047332,-0.00000611,0.00044487,0.00013135,0.00008417,-0.00000684,-0.000
 03973,-0.00007497,-0.00003302,0.00003073,0.00019204,-0.00159792,-0.000
 03633,0.00018519,0.00027822,0.00042515,-0.00010586,0.00051644,-0.00024
 863,0.00183201,-0.06587664,-0.01711050,0.07165243,0.03603175,0.0023301
 1,-0.07642643,0.02639587,0.01117328,0.05239270,-0.25407872,-0.05854574
 ,-0.00190800,0.00218395,-0.00128876,-0.05335040,-0.27031994,-0.0545206
 1,0.00094615,0.00240330,-0.00157306,0.01659967,0.61547934,-0.00000198,
 0.00000033,0.00000014,0.00000059,0.00000014,-0.00000012,0.00000026,-0.
 00000038,-0.00000017,0.00000120,0.00000130,-0.00000034,0.00000070,-0.0
 0000066,-0.00000018,-0.00000032,-0.00000016,0.00000019,-0.00000164,-0.
 00000029,-0.00000272,0.00000007,-0.00000004,0.00000032,0.00000184,-0.0
 0000004,-0.00000041,0.00000383,0.00000605,0.00000807,0.00000070,-0.000
 00494,-0.00000381,0.00000043,0.00000011,-0.00000032,-0.00000104,-0.000
 00281,-0.00000200,-0.00000310,-0.00000839,-0.00000453,-0.00000146,0.00
 001044,-0.00000282,0.00003296,-0.00000429,0.00000753,-0.00000137,-0.00
 000065,-0.00000009,0.00019025,0.00023040,0.00020377,-0.00004485,-0.000
 01972,0.00012672,0.00002515,0.00009435,-0.00016352,-0.00000205,0.00015
 454,-0.00005344,0.00001905,0.00000032,-0.00001013,-0.00002497,-0.00001
 308,0.00000984,-0.00018649,-0.00014467,-0.00117374,-0.00007774,0.00009
 411,0.00015642,-0.00017021,0.00010979,-0.00005664,0.00005291,-0.017094
 55,-0.01168124,0.02387899,0.00543474,0.00808825,-0.01904961,0.00803260
 ,0.01216633,0.02580888,-0.06419427,-0.08554173,0.00058685,-0.00139996,
 0.00700008,-0.00533577,-0.04884824,-0.07852021,0.00141150,-0.00146353,
 0.00685987,-0.04889175,0.13621926,0.17867480,0.00000299,-0.00000086,-0
 .00000078,-0.00000109,-0.00000018,0.00000007,-0.00000061,0.00000086,0.
 00000056,-0.00000370,-0.00000391,0.00000086,-0.00000148,0.00000206,0.0
 0000047,0.00000064,0.00000034,-0.00000060,0.00000387,0.00000203,0.0000
 0703,-0.00000003,0.00000039,-0.00000061,-0.00000529,0.00000015,0.00000
 088,-0.00002372,-0.00001968,-0.00002386,0.00000218,0.00001186,0.000009
 07,-0.00000175,-0.00000028,0.00000139,0.00001371,0.00000982,0.00000758
 ,0.00000291,0.00002235,0.00001618,0.00001226,-0.00003554,0.00000081,-0
 .00005385,0.00001961,-0.00000494,0.00000257,-0.00000116,0.00000375,-0.
 00011318,0.00003625,-0.00018362,0.00001635,0.00001171,0.00003188,0.000
 00674,-0.00001546,0.00000861,0.00001313,-0.00002198,0.00010475,0.00000
 999,0.00000085,0.00000054,-0.00000383,0.00000555,-0.00000270,0.0000122
 1,-0.00131857,-0.00045787,-0.00046497,-0.00011310,0.00003053,0.0000251
 2,0.00007605,-0.00000057,-0.00527838,0.00085592,0.00154172,-0.01031381
 ,-0.02870903,-0.00688351,-0.00084196,0.00076842,0.00019644,-0.12048036
 ,-0.11154706,-0.02430868,0.00130084,0.00055829,-0.00034494,-0.00093219
 ,0.00282602,0.00154435,0.00007584,-0.00010811,-0.00014174,0.01172927,0
 .01555982,0.00367124,0.12401871,0.00000190,-0.00000035,-0.00000076,-0.
 00000071,-0.00000022,0.00000022,-0.00000034,0.00000053,0.00000026,-0.0
 0000211,-0.00000207,0.00000026,-0.00000093,0.00000119,0.00000029,0.000
 00040,0.00000005,-0.00000017,0.00000241,0.00000124,0.00000418,0.000000
 13,0.00000030,-0.00000036,-0.00000321,0.00000003,0.00000065,-0.0000139
 9,-0.00001095,-0.00001434,0.00000138,0.00000652,0.00000586,-0.00000106
 ,0.00000010,0.00000043,0.00000794,0.00000519,0.00000543,0.00000254,0.0
 0001198,0.00000919,0.00000633,-0.00002000,0.00000015,-0.00003051,0.000
 00990,-0.00000917,0.00000156,-0.00000074,0.00000218,-0.00009490,0.0000
 0286,-0.00008324,0.00000381,0.00000521,-0.00000823,0.00000559,-0.00001
 268,0.00000505,0.00002558,-0.00002696,0.00005309,-0.00000273,-0.000003
 49,-0.00000408,-0.00000215,0.00000340,-0.00000135,0.00017567,-0.000061
 82,-0.00002359,-0.00009085,-0.00002823,0.00003732,-0.00002771,0.000001
 70,0.00001241,0.00016865,0.00240935,-0.00150855,0.00120024,0.00214874,
 -0.00049109,0.00069179,0.00019632,0.00026940,-0.11161293,-0.26072290,-
 0.05328941,-0.00027069,0.00045061,0.00135373,0.00378179,-0.00190185,-0
 .00294127,-0.00011314,-0.00014727,0.00029245,-0.01432662,-0.01730675,-
 0.00459320,0.12093716,0.27513894,0.00000164,-0.00000011,0.00000005,-0.
 00000046,-0.00000013,0.00000010,-0.00000024,0.00000021,0.00000007,-0.0
 0000046,-0.00000044,0.00000019,-0.00000040,0.00000017,0.00000006,0.000
 00020,0.00000010,-0.00000008,0.00000063,0.00000003,0.00000080,-0.00000
 018,-0.00000009,-0.00000019,-0.00000064,0.00000002,0.00000013,0.000004
 42,-0.00000249,-0.00000244,-0.00000246,0.00000282,0.00000187,0.0000000
 2,-0.00000018,-0.00000008,-0.00000463,0.,0.00000043,0.00000032,0.00000
 195,0.00000093,0.00000100,-0.00000248,-0.00000095,-0.00000369,-0.00000
 064,-0.00000038,0.00000088,0.00000044,0.,0.00000911,0.00001711,-0.0000
 1724,0.00001225,0.00000880,0.00000066,-0.00000025,0.00000745,-0.000006
 51,-0.00002026,0.00002229,0.00000251,-0.00000113,0.00000013,0.00000672
 ,-0.00000419,0.00000127,0.00000092,0.00025516,0.00001720,0.00011646,0.
 00008220,0.00002531,-0.00007926,-0.00004144,0.00002524,-0.00001793,0.0
 0096050,-0.00173792,0.00700822,0.00156140,0.00228477,0.00399071,0.0001
 2554,0.00026457,-0.00084926,-0.02431036,-0.05319285,-0.05034607,-0.000
 55800,0.00127163,-0.00382660,0.00185303,-0.00282139,0.00627670,-0.0001
 3986,0.00031010,-0.00105227,-0.00477281,-0.00739137,0.00180400,0.02557
 865,0.05982156,0.04056760,0.00000445,-0.00000046,-0.00000120,-0.000001
 49,-0.00000041,0.00000043,-0.00000069,0.00000082,0.00000040,-0.0000037
 0,-0.00000348,0.00000043,-0.00000176,0.00000200,0.00000052,0.00000079,
 0.00000007,-0.00000023,0.00000428,0.00000186,0.00000732,-0.00000011,0.
 00000044,-0.00000091,-0.00000567,0.00000003,0.00000133,-0.00001820,-0.
 00001773,-0.00002425,0.00000017,0.00001180,0.00001056,-0.00000155,0.00
 000017,0.00000055,0.00000872,0.00000722,0.00000845,0.00000384,0.000021
 33,0.00001536,0.00001143,-0.00003494,0.00000114,-0.00005611,0.00000767
 ,-0.00001136,0.00000263,-0.00000131,0.00000634,-0.00013979,0.00004963,
 -0.00018526,0.00000634,0.00001014,0.00001391,0.00001938,-0.00002630,0.
 00002103,0.00001476,-0.00003957,0.00010956,-0.00000117,-0.00000515,-0.
 00000498,0.00000750,0.00000006,-0.00000168,-0.00004854,0.00134653,0.00
 031134,0.00003015,-0.00006506,-0.00003729,-0.00045912,0.00005846,0.000
 07699,-0.00517631,-0.00188520,0.00074798,-0.00076055,-0.00080342,-0.00
 026142,-0.01168208,0.02727134,0.00928435,-0.00056603,-0.00310249,-0.00
 018264,0.00006292,0.00017226,-0.00006083,-0.13243212,0.11400216,0.0414
 7013,0.00129728,-0.00026301,-0.00057688,0.01167489,-0.01362755,-0.0046
 7936,0.00038040,-0.00071950,-0.00021887,0.13696557,-0.00000259,0.00000
 018,0.00000065,0.00000085,0.00000029,-0.00000031,0.00000038,-0.0000004
 7,-0.00000019,0.00000181,0.00000164,-0.00000018,0.00000097,-0.00000097
 ,-0.00000026,-0.00000043,-0.00000001,0.00000007,-0.00000220,-0.0000010
 3,-0.00000348,0.00000002,-0.00000018,0.00000046,0.00000276,0.,-0.00000
 067,0.00000680,0.00000889,0.00001186,0.00000067,-0.00000618,-0.0000056
 2,0.00000070,-0.00000012,-0.00000006,-0.00000242,-0.00000324,-0.000004
 36,-0.00000212,-0.00000961,-0.00000709,-0.00000479,0.00001618,-0.00000
 011,0.00002509,-0.00000791,0.00000759,-0.00000176,0.00000039,-0.000001
 56,0.00007153,-0.00001809,0.00006587,-0.00000282,-0.00000482,-0.000002
 76,-0.00000932,0.00000381,0.00001012,-0.00001083,0.00001329,-0.0000403
 7,0.00000273,0.00000357,0.00000196,0.00000420,-0.00000192,-0.00000073,
 -0.00028883,0.00002879,-0.00004786,0.00004161,0.00001180,0.00000670,0.
 00001380,-0.00001227,0.00000301,-0.00099111,0.00213364,-0.00145415,-0.
 00070042,0.00006559,0.00033750,-0.00259456,0.00472558,0.00060308,-0.00
 407568,-0.00252767,-0.00246507,0.00017538,-0.00011540,0.00028733,0.114
 07041,-0.23803514,-0.06843917,0.00055872,0.00042931,0.00130016,0.01618
 058,-0.01722301,-0.00745805,0.00079700,-0.00095572,-0.00038946,-0.1231
 8885,0.25063854,-0.00000048,-0.00000006,0.00000051,0.00000023,0.000000
 08,-0.00000015,0.00000006,-0.00000008,-0.00000004,0.00000067,0.0000005
 3,0.00000008,0.00000027,-0.00000039,-0.00000009,-0.00000011,0.00000013
 ,-0.00000008,-0.00000083,-0.00000028,-0.00000139,-0.00000006,-0.000000
 20,0.00000017,0.00000125,0.,-0.00000037,0.00000623,0.00000282,0.000005
 28,-0.00000106,-0.00000133,-0.00000202,0.00000032,-0.00000028,0.000000
 06,-0.00000395,-0.00000098,-0.00000258,-0.00000079,-0.00000397,-0.0000
 0359,-0.00000213,0.00000933,0.00000054,0.00001349,-0.00000516,0.000001
 52,0.00000005,0.00000070,-0.00000197,0.00005082,-0.00003105,0.00002837
 ,-0.00000262,-0.00000516,-0.00001530,0.00000753,-0.00000435,0.00000379
 ,-0.00002998,-0.00002123,-0.00003556,-0.00000309,-0.00000017,0.0000014
 2,0.00000153,-0.00000410,0.00000548,0.00013258,-0.00006577,0.00006932,
 -0.00001952,-0.00000405,-0.00003269,0.00011544,0.00002387,-0.00007560,
 0.00060290,-0.00124658,0.00715339,-0.00027631,0.00033803,-0.00081388,0
 .00059423,-0.00219748,0.00277794,-0.00043054,-0.00257439,0.00656562,-0
 .00005743,0.00027079,-0.00107141,0.04152959,-0.06851697,-0.06099948,-0
 .00031661,0.00138619,-0.00378827,0.00397394,-0.00467067,0.00175487,0.0
 0021566,-0.00027371,0.00009442,-0.04562877,0.07623359,0.05207877,0.000
 00284,-0.00000026,-0.00000079,-0.00000096,-0.00000034,0.00000037,-0.00
 000044,0.00000057,0.00000021,-0.00000211,-0.00000190,0.00000016,-0.000
 00110,0.00000114,0.00000031,0.00000048,-0.00000004,-0.00000007,0.00000
 246,0.00000151,0.00000366,0.,0.00000025,-0.00000048,-0.00000312,-0.000
 00004,0.00000075,-0.00000848,-0.00001125,-0.00001402,-0.00000061,0.000
 00723,0.00000652,-0.00000087,0.00000011,0.00000003,0.00000354,0.000004
 06,0.00000545,0.00000201,0.00001117,0.00000849,0.00000643,-0.00001847,
 -0.00000061,-0.00002362,0.00000804,-0.00000690,0.00000172,-0.00000052,
 0.00000215,-0.00003202,0.00001637,-0.00006124,0.00000341,0.00000618,-0
 .00000581,0.00000417,-0.00000550,-0.00000610,0.00001106,-0.00001053,0.
 00003360,-0.00000295,-0.00000286,-0.00000104,-0.00000343,0.00000230,-0
 .00000040,0.00006778,0.00001668,-0.00006259,-0.00003162,-0.00005386,-0
 .00000178,-0.00003421,0.00004574,0.00002568,0.00054354,0.00008250,-0.0
 0011997,0.00062058,0.00292228,0.00143121,0.00088722,-0.00298498,-0.000
 27859,-0.01220893,-0.00317500,0.00047511,-0.00073404,-0.00019806,0.000
 02428,-0.01089217,0.00168806,0.00174783,-0.00067314,0.00011958,0.00010
 986,-0.33294893,-0.01386917,0.02278632,0.00089045,0.00029920,-0.000366
 61,0.00085948,-0.00007726,-0.00047253,0.35369560,-0.00000001,0.,-0.000
 00010,-0.00000001,0.,0.,0.00000001,0.00000001,0.00000004,-0.00000014,-
 0.00000026,0.00000008,-0.00000004,0.00000012,0.,0.,0.00000004,-0.00000
 004,0.00000014,-0.00000022,0.00000073,0.00000004,0.00000005,0.,-0.0000
 0042,0.00000001,0.00000007,-0.00000303,-0.00000048,-0.00000171,0.00000
 066,0.00000031,0.00000045,-0.00000011,0.00000005,0.00000017,0.00000204
 ,0.00000062,0.00000036,0.00000030,0.00000181,0.00000118,0.00000050,-0.
 00000252,0.00000035,-0.00000637,0.00000023,-0.00000103,0.00000033,-0.0
 0000019,-0.00000014,-0.00003118,0.00001330,0.00000263,-0.00000938,-0.0
 0000341,0.00002412,0.00000562,0.00000644,-0.00001713,-0.00000021,0.000
 00619,0.00001953,0.00000418,-0.00000076,-0.00000206,-0.00000216,-0.000
 00032,0.00000064,-0.00004019,0.00010448,0.00031301,0.00008911,0.000070
 66,0.00001778,-0.00005931,-0.00000108,-0.00000871,0.00011680,-0.001238
 22,-0.00008245,0.00190543,-0.00327239,-0.00317763,-0.00199263,-0.00371
 923,-0.00299636,0.02682246,0.00540895,-0.00171372,0.00131515,0.0000812
 8,-0.00015299,-0.02825508,0.00302287,0.00259852,-0.00137500,-0.0000211
 9,0.00003519,-0.01387738,-0.05838518,-0.00513655,-0.00060762,0.0008078
 1,0.00145640,0.00082044,0.00084227,0.00136237,0.01517707,0.05627797,-0
 .00000018,-0.00000001,0.00000041,0.00000013,0.00000003,-0.00000007,0.0
 0000002,-0.00000008,-0.00000005,0.00000040,0.00000052,0.00000008,0.000
 00017,-0.00000030,-0.00000005,-0.00000008,0.00000006,-0.00000004,-0.00
 000055,0.00000058,-0.00000201,-0.00000011,-0.00000022,0.00000005,0.000
 00128,0.00000003,-0.00000030,0.00000759,0.00000168,0.00000603,-0.00000
 151,-0.00000114,-0.00000192,0.00000041,-0.00000013,-0.00000021,-0.0000
 0511,-0.00000134,-0.00000226,-0.00000142,-0.00000509,-0.00000372,-0.00
 000173,0.00000641,-0.00000187,0.00002019,-0.00000279,0.00000349,-0.000
 00051,0.00000058,0.00000030,0.00010060,0.00000185,-0.00000403,0.000003
 39,-0.00000068,-0.00000373,0.00000741,0.00000393,-0.00000809,0.0000004
 8,0.00001554,-0.00005278,-0.00000280,0.00000173,0.00000183,-0.00000228
 ,-0.00000307,0.00000083,0.00012096,0.00032504,-0.00089384,-0.00001783,
 -0.00011319,-0.00001447,-0.00007742,0.00013308,0.00005458,-0.00025604,
 -0.00009471,-0.00099213,0.00120156,-0.00324452,0.00624161,0.00006770,-
 0.00292561,0.00646148,0.00894950,0.00111529,0.00241051,0.00042444,-0.0
 0001663,0.00020259,-0.00694820,-0.00023244,0.00346970,-0.00035158,-0.0
 0010295,0.00024698,0.02285437,-0.00513844,-0.03964305,-0.00061858,0.00
 136840,-0.00367428,-0.00021223,0.00145156,-0.00369708,-0.02526244,0.00
 745701,0.02989550\\-0.00001972,-0.00000820,-0.00000832,-0.00000409,0.0
 0000145,0.00000016,-0.00000400,-0.00000475,0.00000169,0.00001222,0.000
 00838,-0.00000175,0.00000086,-0.00000215,-0.00000067,-0.00000583,-0.00
 000027,-0.00000624,0.00000696,0.00000170,0.00000384,0.00000077,-0.0000
 0661,0.00000295,-0.00000330,0.00000052,0.00000665,-0.00001282,-0.00001
 093,-0.00000683,-0.00000371,0.00000672,-0.00001288,0.00000128,0.000005
 51,-0.00000279,0.00000446,0.00000761,0.00000149,0.00001130,-0.00001157
 ,0.00000936,0.00000304,0.00001191,-0.00003012,-0.00000226,0.00000173,0
 .00001297,0.00000220,-0.00000169,0.00000290,-0.00000014,0.00000029,0.0
 0000470,-0.00000065,0.00000060,0.00000005,0.00000430,0.,0.00000337,0.0
 0000068,-0.00000515,0.00000584,0.00000187,-0.00000292,0.00000623,-0.00
 000088,-0.00000029,0.00000119,0.00000164,-0.00000238,0.00000024,0.0000
 0242,-0.00000353,0.00000225,-0.00000150,-0.00000153,-0.00000084,-0.000
 00054,-0.00000765,-0.00000251,0.00000245,0.00000380,-0.00000008,-0.000
 00115,0.00000230,0.00000218,-0.00000514,0.00000520,-0.00000029,-0.0000
 0194,0.00000043,-0.00000193,0.00000642,0.00000401,0.00000202,0.0000036
 3,-0.00000024,0.00000417,0.00000103,-0.00000188,-0.00000054,-0.0000021
 3,0.00000287,-0.00000258,0.00000240,0.00000211,0.00000376,-0.00000013,
 0.00000456,0.00000038\\\@


 EVERYBODY NEEDS BEAUTY AS WELL AS BREAD, PLACES TO PLAY IN AND PRAY IN,
 WHERE NATURE MAY HEAL AND CHEER AND GIVE STRENGTH TO BODY AND SOUL ALIKE.

                                    -- JOHN MUIR
 Job cpu time:       2 days  3 hours 53 minutes 12.4 seconds.
 Elapsed time:       0 days  4 hours 20 minutes 12.9 seconds.
 File lengths (MBytes):  RWF=   1864 Int=      0 D2E=      0 Chk=     65 Scr=      1
 Normal termination of Gaussian 16 at Thu Jul 11 00:09:00 2024.
